       #
       # Generated by the Wannier90 code http://www.wannier.org
       # On 12Dec2023 at 23:35:55 
       #
CRYSTAL
PRIMVEC
   3.4751459   0.0000000   0.0000000
   0.0000000   3.4751459   0.0000000
   0.0000000   0.0000000   3.4751459
CONVVEC
   3.4751459   0.0000000   0.0000000
   0.0000000   3.4751459   0.0000000
   0.0000000   0.0000000   3.4751459
PRIMCOORD
     4  1
Ni      1.7375729   1.7375729   1.7375729
Ni      1.7375729   0.0000000   0.0000000
Ni      0.0000000   1.7375729   0.0000000
Ni      0.0000000   0.0000000   1.7375729


BEGIN_BLOCK_DATAGRID_3D
3D_field
BEGIN_DATAGRID_3D_UNKNOWN
    30    30    30
   -0.115838   -0.115838   -0.115838
   3.3593077   0.0000000   0.0000000
   0.0000000   3.3593077   0.0000000
   0.0000000   0.0000000   3.3593077
  0.44953E-07 -0.27556E-03 -0.24831E-03  0.45004E-03  0.16008E-02  0.29316E-02
  0.46994E-02  0.70392E-02  0.92867E-02  0.11099E-01  0.13838E-01  0.18916E-01
  0.24127E-01  0.23758E-01  0.14745E-01  0.22167E-02 -0.36948E-02  0.22167E-02
  0.14745E-01  0.23758E-01  0.24127E-01  0.18916E-01  0.13838E-01  0.11099E-01
  0.92867E-02  0.70392E-02  0.46994E-02  0.29316E-02  0.16008E-02  0.45004E-03
 -0.27556E-03 -0.70213E-03 -0.57187E-03  0.47674E-03  0.20075E-02  0.35813E-02
  0.54845E-02  0.79491E-02  0.10354E-01  0.12455E-01  0.15817E-01  0.21782E-01
  0.27350E-01  0.25680E-01  0.13493E-01 -0.25672E-02 -0.10034E-01 -0.25672E-02
  0.13493E-01  0.25680E-01  0.27350E-01  0.21782E-01  0.15817E-01  0.12455E-01
  0.10354E-01  0.79491E-02  0.54845E-02  0.35813E-02  0.20075E-02  0.47674E-03
 -0.24831E-03 -0.57187E-03 -0.13454E-03  0.12152E-02  0.28484E-02  0.43460E-02
  0.61664E-02  0.86763E-02  0.11210E-01  0.13067E-01  0.14499E-01  0.14456E-01
  0.74148E-02 -0.13903E-01 -0.49096E-01 -0.84138E-01 -0.99001E-01 -0.84138E-01
 -0.49096E-01 -0.13903E-01  0.74148E-02  0.14456E-01  0.14499E-01  0.13067E-01
  0.11210E-01  0.86763E-02  0.61664E-02  0.43460E-02  0.28484E-02  0.12152E-02
  0.45004E-03  0.47674E-03  0.12152E-02  0.25626E-02  0.39532E-02  0.52883E-02
  0.72695E-02  0.10273E-01  0.13428E-01  0.15304E-01  0.14237E-01  0.60585E-02
 -0.17473E-01 -0.63279E-01 -0.12591E+00 -0.18285E+00 -0.20611E+00 -0.18285E+00
 -0.12591E+00 -0.63279E-01 -0.17473E-01  0.60585E-02  0.14237E-01  0.15304E-01
  0.13428E-01  0.10273E-01  0.72695E-02  0.52883E-02  0.39532E-02  0.25626E-02
  0.16008E-02  0.20075E-02  0.28484E-02  0.39532E-02  0.51463E-02  0.67968E-02
  0.96731E-02  0.13865E-01  0.18200E-01  0.20827E-01  0.19009E-01  0.69443E-02
 -0.24613E-01 -0.81664E-01 -0.15592E+00 -0.22149E+00 -0.24791E+00 -0.22149E+00
 -0.15592E+00 -0.81664E-01 -0.24613E-01  0.69443E-02  0.19009E-01  0.20827E-01
  0.18200E-01  0.13865E-01  0.96731E-02  0.67968E-02  0.51463E-02  0.39532E-02
  0.29316E-02  0.35813E-02  0.43460E-02  0.52883E-02  0.67968E-02  0.95642E-02
  0.14071E-01  0.19848E-01  0.25478E-01  0.29277E-01  0.28885E-01  0.19263E-01
 -0.73979E-02 -0.55815E-01 -0.11855E+00 -0.17370E+00 -0.19585E+00 -0.17370E+00
 -0.11855E+00 -0.55815E-01 -0.73979E-02  0.19263E-01  0.28885E-01  0.29277E-01
  0.25478E-01  0.19848E-01  0.14071E-01  0.95642E-02  0.67968E-02  0.52883E-02
  0.46994E-02  0.54845E-02  0.61664E-02  0.72695E-02  0.96731E-02  0.14071E-01
  0.20404E-01  0.27666E-01  0.34409E-01  0.39477E-01  0.41662E-01  0.38107E-01
  0.23938E-01 -0.40938E-02 -0.41687E-01 -0.75264E-01 -0.88843E-01 -0.75264E-01
 -0.41687E-01 -0.40938E-02  0.23938E-01  0.38107E-01  0.41662E-01  0.39477E-01
  0.34409E-01  0.27666E-01  0.20404E-01  0.14071E-01  0.96731E-02  0.72695E-02
  0.70392E-02  0.79491E-02  0.86763E-02  0.10273E-01  0.13865E-01  0.19848E-01
  0.27666E-01  0.36175E-01  0.44237E-01  0.51163E-01  0.56558E-01  0.59440E-01
  0.57668E-01  0.49296E-01  0.35544E-01  0.22190E-01  0.16604E-01  0.22190E-01
  0.35544E-01  0.49296E-01  0.57668E-01  0.59440E-01  0.56558E-01  0.51163E-01
  0.44237E-01  0.36175E-01  0.27666E-01  0.19848E-01  0.13865E-01  0.10273E-01
  0.92867E-02  0.10354E-01  0.11210E-01  0.13428E-01  0.18200E-01  0.25478E-01
  0.34409E-01  0.44237E-01  0.54499E-01  0.64725E-01  0.74449E-01  0.83294E-01
  0.90571E-01  0.95072E-01  0.96141E-01  0.95006E-01  0.94186E-01  0.95006E-01
  0.96141E-01  0.95072E-01  0.90571E-01  0.83294E-01  0.74449E-01  0.64725E-01
  0.54499E-01  0.44237E-01  0.34409E-01  0.25478E-01  0.18200E-01  0.13428E-01
  0.11099E-01  0.12455E-01  0.13067E-01  0.15304E-01  0.20827E-01  0.29277E-01
  0.39477E-01  0.51163E-01  0.64725E-01  0.79797E-01  0.95204E-01  0.11010E+00
  0.12406E+00  0.13602E+00  0.14440E+00  0.14870E+00  0.14988E+00  0.14870E+00
  0.14440E+00  0.13602E+00  0.12406E+00  0.11010E+00  0.95204E-01  0.79797E-01
  0.64725E-01  0.51163E-01  0.39477E-01  0.29277E-01  0.20827E-01  0.15304E-01
  0.13838E-01  0.15817E-01  0.14499E-01  0.14237E-01  0.19009E-01  0.28885E-01
  0.41662E-01  0.56558E-01  0.74449E-01  0.95204E-01  0.11693E+00  0.13794E+00
  0.15754E+00  0.17464E+00  0.18721E+00  0.19417E+00  0.19624E+00  0.19417E+00
  0.18721E+00  0.17464E+00  0.15754E+00  0.13794E+00  0.11693E+00  0.95204E-01
  0.74449E-01  0.56558E-01  0.41662E-01  0.28885E-01  0.19009E-01  0.14237E-01
  0.18916E-01  0.21782E-01  0.14456E-01  0.60585E-02  0.69443E-02  0.19263E-01
  0.38107E-01  0.59440E-01  0.83294E-01  0.11010E+00  0.13794E+00  0.16442E+00
  0.18857E+00  0.20949E+00  0.22519E+00  0.23423E+00  0.23703E+00  0.23423E+00
  0.22519E+00  0.20949E+00  0.18857E+00  0.16442E+00  0.13794E+00  0.11010E+00
  0.83294E-01  0.59440E-01  0.38107E-01  0.19263E-01  0.69443E-02  0.60585E-02
  0.24127E-01  0.27350E-01  0.74148E-02 -0.17473E-01 -0.24613E-01 -0.73979E-02
  0.23938E-01  0.57668E-01  0.90571E-01  0.12406E+00  0.15754E+00  0.18857E+00
  0.21590E+00  0.23909E+00  0.25672E+00  0.26731E+00  0.27073E+00  0.26731E+00
  0.25672E+00  0.23909E+00  0.21590E+00  0.18857E+00  0.15754E+00  0.12406E+00
  0.90571E-01  0.57668E-01  0.23938E-01 -0.73979E-02 -0.24613E-01 -0.17473E-01
  0.23758E-01  0.25680E-01 -0.13903E-01 -0.63279E-01 -0.81664E-01 -0.55815E-01
 -0.40938E-02  0.49296E-01  0.95072E-01  0.13602E+00  0.17464E+00  0.20949E+00
  0.23909E+00  0.26334E+00  0.28177E+00  0.29320E+00  0.29701E+00  0.29320E+00
  0.28177E+00  0.26334E+00  0.23909E+00  0.20949E+00  0.17464E+00  0.13602E+00
  0.95072E-01  0.49296E-01 -0.40938E-02 -0.55815E-01 -0.81664E-01 -0.63279E-01
  0.14745E-01  0.13493E-01 -0.49096E-01 -0.12591E+00 -0.15592E+00 -0.11855E+00
 -0.41687E-01  0.35544E-01  0.96141E-01  0.14440E+00  0.18721E+00  0.22519E+00
  0.25672E+00  0.28177E+00  0.30062E+00  0.31252E+00  0.31658E+00  0.31252E+00
  0.30062E+00  0.28177E+00  0.25672E+00  0.22519E+00  0.18721E+00  0.14440E+00
  0.96141E-01  0.35544E-01 -0.41687E-01 -0.11855E+00 -0.15592E+00 -0.12591E+00
  0.22167E-02 -0.25672E-02 -0.84138E-01 -0.18285E+00 -0.22149E+00 -0.17370E+00
 -0.75264E-01  0.22190E-01  0.95006E-01  0.14870E+00  0.19417E+00  0.23423E+00
  0.26731E+00  0.29320E+00  0.31252E+00  0.32483E+00  0.32910E+00  0.32483E+00
  0.31252E+00  0.29320E+00  0.26731E+00  0.23423E+00  0.19417E+00  0.14870E+00
  0.95006E-01  0.22190E-01 -0.75264E-01 -0.17370E+00 -0.22149E+00 -0.18285E+00
 -0.36948E-02 -0.10034E-01 -0.99001E-01 -0.20611E+00 -0.24791E+00 -0.19585E+00
 -0.88843E-01  0.16604E-01  0.94186E-01  0.14988E+00  0.19624E+00  0.23703E+00
  0.27073E+00  0.29701E+00  0.31658E+00  0.32910E+00  0.33345E+00  0.32910E+00
  0.31658E+00  0.29701E+00  0.27073E+00  0.23703E+00  0.19624E+00  0.14988E+00
  0.94186E-01  0.16604E-01 -0.88843E-01 -0.19585E+00 -0.24791E+00 -0.20611E+00
  0.22167E-02 -0.25672E-02 -0.84138E-01 -0.18285E+00 -0.22149E+00 -0.17370E+00
 -0.75264E-01  0.22190E-01  0.95006E-01  0.14870E+00  0.19417E+00  0.23423E+00
  0.26731E+00  0.29320E+00  0.31252E+00  0.32483E+00  0.32910E+00  0.32483E+00
  0.31252E+00  0.29320E+00  0.26731E+00  0.23423E+00  0.19417E+00  0.14870E+00
  0.95006E-01  0.22190E-01 -0.75264E-01 -0.17370E+00 -0.22149E+00 -0.18285E+00
  0.14745E-01  0.13493E-01 -0.49096E-01 -0.12591E+00 -0.15592E+00 -0.11855E+00
 -0.41687E-01  0.35544E-01  0.96141E-01  0.14440E+00  0.18721E+00  0.22519E+00
  0.25672E+00  0.28177E+00  0.30062E+00  0.31252E+00  0.31658E+00  0.31252E+00
  0.30062E+00  0.28177E+00  0.25672E+00  0.22519E+00  0.18721E+00  0.14440E+00
  0.96141E-01  0.35544E-01 -0.41687E-01 -0.11855E+00 -0.15592E+00 -0.12591E+00
  0.23758E-01  0.25680E-01 -0.13903E-01 -0.63279E-01 -0.81664E-01 -0.55815E-01
 -0.40938E-02  0.49296E-01  0.95072E-01  0.13602E+00  0.17464E+00  0.20949E+00
  0.23909E+00  0.26334E+00  0.28177E+00  0.29320E+00  0.29701E+00  0.29320E+00
  0.28177E+00  0.26334E+00  0.23909E+00  0.20949E+00  0.17464E+00  0.13602E+00
  0.95072E-01  0.49296E-01 -0.40938E-02 -0.55815E-01 -0.81664E-01 -0.63279E-01
  0.24127E-01  0.27350E-01  0.74148E-02 -0.17473E-01 -0.24613E-01 -0.73979E-02
  0.23938E-01  0.57668E-01  0.90571E-01  0.12406E+00  0.15754E+00  0.18857E+00
  0.21590E+00  0.23909E+00  0.25672E+00  0.26731E+00  0.27073E+00  0.26731E+00
  0.25672E+00  0.23909E+00  0.21590E+00  0.18857E+00  0.15754E+00  0.12406E+00
  0.90571E-01  0.57668E-01  0.23938E-01 -0.73979E-02 -0.24613E-01 -0.17473E-01
  0.18916E-01  0.21782E-01  0.14456E-01  0.60585E-02  0.69443E-02  0.19263E-01
  0.38107E-01  0.59440E-01  0.83294E-01  0.11010E+00  0.13794E+00  0.16442E+00
  0.18857E+00  0.20949E+00  0.22519E+00  0.23423E+00  0.23703E+00  0.23423E+00
  0.22519E+00  0.20949E+00  0.18857E+00  0.16442E+00  0.13794E+00  0.11010E+00
  0.83294E-01  0.59440E-01  0.38107E-01  0.19263E-01  0.69443E-02  0.60585E-02
  0.13838E-01  0.15817E-01  0.14499E-01  0.14237E-01  0.19009E-01  0.28885E-01
  0.41662E-01  0.56558E-01  0.74449E-01  0.95204E-01  0.11693E+00  0.13794E+00
  0.15754E+00  0.17464E+00  0.18721E+00  0.19417E+00  0.19624E+00  0.19417E+00
  0.18721E+00  0.17464E+00  0.15754E+00  0.13794E+00  0.11693E+00  0.95204E-01
  0.74449E-01  0.56558E-01  0.41662E-01  0.28885E-01  0.19009E-01  0.14237E-01
  0.11099E-01  0.12455E-01  0.13067E-01  0.15304E-01  0.20827E-01  0.29277E-01
  0.39477E-01  0.51163E-01  0.64725E-01  0.79797E-01  0.95204E-01  0.11010E+00
  0.12406E+00  0.13602E+00  0.14440E+00  0.14870E+00  0.14988E+00  0.14870E+00
  0.14440E+00  0.13602E+00  0.12406E+00  0.11010E+00  0.95204E-01  0.79797E-01
  0.64725E-01  0.51163E-01  0.39477E-01  0.29277E-01  0.20827E-01  0.15304E-01
  0.92867E-02  0.10354E-01  0.11210E-01  0.13428E-01  0.18200E-01  0.25478E-01
  0.34409E-01  0.44237E-01  0.54499E-01  0.64725E-01  0.74449E-01  0.83294E-01
  0.90571E-01  0.95072E-01  0.96141E-01  0.95006E-01  0.94186E-01  0.95006E-01
  0.96141E-01  0.95072E-01  0.90571E-01  0.83294E-01  0.74449E-01  0.64725E-01
  0.54499E-01  0.44237E-01  0.34409E-01  0.25478E-01  0.18200E-01  0.13428E-01
  0.70392E-02  0.79491E-02  0.86763E-02  0.10273E-01  0.13865E-01  0.19848E-01
  0.27666E-01  0.36175E-01  0.44237E-01  0.51163E-01  0.56558E-01  0.59440E-01
  0.57668E-01  0.49296E-01  0.35544E-01  0.22190E-01  0.16604E-01  0.22190E-01
  0.35544E-01  0.49296E-01  0.57668E-01  0.59440E-01  0.56558E-01  0.51163E-01
  0.44237E-01  0.36175E-01  0.27666E-01  0.19848E-01  0.13865E-01  0.10273E-01
  0.46994E-02  0.54845E-02  0.61664E-02  0.72695E-02  0.96731E-02  0.14071E-01
  0.20404E-01  0.27666E-01  0.34409E-01  0.39477E-01  0.41662E-01  0.38107E-01
  0.23938E-01 -0.40938E-02 -0.41687E-01 -0.75264E-01 -0.88843E-01 -0.75264E-01
 -0.41687E-01 -0.40938E-02  0.23938E-01  0.38107E-01  0.41662E-01  0.39477E-01
  0.34409E-01  0.27666E-01  0.20404E-01  0.14071E-01  0.96731E-02  0.72695E-02
  0.29316E-02  0.35813E-02  0.43460E-02  0.52883E-02  0.67968E-02  0.95642E-02
  0.14071E-01  0.19848E-01  0.25478E-01  0.29277E-01  0.28885E-01  0.19263E-01
 -0.73979E-02 -0.55815E-01 -0.11855E+00 -0.17370E+00 -0.19585E+00 -0.17370E+00
 -0.11855E+00 -0.55815E-01 -0.73979E-02  0.19263E-01  0.28885E-01  0.29277E-01
  0.25478E-01  0.19848E-01  0.14071E-01  0.95642E-02  0.67968E-02  0.52883E-02
  0.16008E-02  0.20075E-02  0.28484E-02  0.39532E-02  0.51463E-02  0.67968E-02
  0.96731E-02  0.13865E-01  0.18200E-01  0.20827E-01  0.19009E-01  0.69443E-02
 -0.24613E-01 -0.81664E-01 -0.15592E+00 -0.22149E+00 -0.24791E+00 -0.22149E+00
 -0.15592E+00 -0.81664E-01 -0.24613E-01  0.69443E-02  0.19009E-01  0.20827E-01
  0.18200E-01  0.13865E-01  0.96731E-02  0.67968E-02  0.51463E-02  0.39532E-02
  0.45004E-03  0.47674E-03  0.12152E-02  0.25626E-02  0.39532E-02  0.52883E-02
  0.72695E-02  0.10273E-01  0.13428E-01  0.15304E-01  0.14237E-01  0.60585E-02
 -0.17473E-01 -0.63279E-01 -0.12591E+00 -0.18285E+00 -0.20611E+00 -0.18285E+00
 -0.12591E+00 -0.63279E-01 -0.17473E-01  0.60585E-02  0.14237E-01  0.15304E-01
  0.13428E-01  0.10273E-01  0.72695E-02  0.52883E-02  0.39532E-02  0.25626E-02
  0.55126E-03  0.35113E-03  0.45334E-03  0.12131E-02  0.23701E-02  0.36401E-02
  0.53169E-02  0.75865E-02  0.98394E-02  0.11778E-01  0.14612E-01  0.19041E-01
  0.21579E-01  0.15555E-01 -0.13312E-02 -0.21028E-01 -0.29862E-01 -0.21028E-01
 -0.13312E-02  0.15555E-01  0.21579E-01  0.19041E-01  0.14612E-01  0.11778E-01
  0.98394E-02  0.75865E-02  0.53169E-02  0.36401E-02  0.23701E-02  0.12131E-02
  0.35113E-03  0.39626E-07  0.20664E-03  0.12513E-02  0.26674E-02  0.41016E-02
  0.59738E-02  0.85910E-02  0.11335E-01  0.13868E-01  0.17255E-01  0.21453E-01
  0.21386E-01  0.89809E-02 -0.17338E-01 -0.45879E-01 -0.58365E-01 -0.45879E-01
 -0.17338E-01  0.89809E-02  0.21386E-01  0.21453E-01  0.17255E-01  0.13868E-01
  0.11335E-01  0.85910E-02  0.59738E-02  0.41016E-02  0.26674E-02  0.12513E-02
  0.45334E-03  0.20664E-03  0.65682E-03  0.18822E-02  0.33510E-02  0.48716E-02
  0.70596E-02  0.10237E-01  0.13556E-01  0.16019E-01  0.17062E-01  0.13722E-01
 -0.21791E-02 -0.39241E-01 -0.94434E-01 -0.14680E+00 -0.16858E+00 -0.14680E+00
 -0.94434E-01 -0.39241E-01 -0.21791E-02  0.13722E-01  0.17062E-01  0.16019E-01
  0.13556E-01  0.10237E-01  0.70596E-02  0.48716E-02  0.33510E-02  0.18822E-02
  0.12131E-02  0.12513E-02  0.18822E-02  0.30654E-02  0.44972E-02  0.63380E-02
  0.92872E-02  0.13429E-01  0.17532E-01  0.19824E-01  0.17830E-01  0.54147E-02
 -0.28430E-01 -0.91942E-01 -0.17673E+00 -0.25273E+00 -0.28356E+00 -0.25273E+00
 -0.17673E+00 -0.91942E-01 -0.28430E-01  0.54147E-02  0.17830E-01  0.19824E-01
  0.17532E-01  0.13429E-01  0.92872E-02  0.63380E-02  0.44972E-02  0.30654E-02
  0.23701E-02  0.26674E-02  0.33510E-02  0.44972E-02  0.62318E-02  0.89964E-02
  0.13266E-01  0.18643E-01  0.23631E-01  0.26280E-01  0.23428E-01  0.77349E-02
 -0.32482E-01 -0.10455E+00 -0.19781E+00 -0.27984E+00 -0.31282E+00 -0.27984E+00
 -0.19781E+00 -0.10455E+00 -0.32482E-01  0.77349E-02  0.23428E-01  0.26280E-01
  0.23631E-01  0.18643E-01  0.13266E-01  0.89964E-02  0.62318E-02  0.44972E-02
  0.36401E-02  0.41016E-02  0.48716E-02  0.63380E-02  0.89964E-02  0.13269E-01
  0.19125E-01  0.25689E-01  0.31536E-01  0.35304E-01  0.34690E-01  0.23700E-01
 -0.73792E-02 -0.64633E-01 -0.13937E+00 -0.20529E+00 -0.23182E+00 -0.20529E+00
 -0.13937E+00 -0.64633E-01 -0.73792E-02  0.23700E-01  0.34690E-01  0.35304E-01
  0.31536E-01  0.25689E-01  0.19125E-01  0.13269E-01  0.89964E-02  0.63380E-02
  0.53169E-02  0.59738E-02  0.70596E-02  0.92872E-02  0.13266E-01  0.19125E-01
  0.26373E-01  0.34011E-01  0.41046E-01  0.46923E-01  0.50678E-01  0.48847E-01
  0.35128E-01  0.49535E-02 -0.37181E-01 -0.75493E-01 -0.91098E-01 -0.75493E-01
 -0.37181E-01  0.49535E-02  0.35128E-01  0.48847E-01  0.50678E-01  0.46923E-01
  0.41046E-01  0.34011E-01  0.26373E-01  0.19125E-01  0.13266E-01  0.92872E-02
  0.75865E-02  0.85910E-02  0.10237E-01  0.13429E-01  0.18643E-01  0.25689E-01
  0.34011E-01  0.43074E-01  0.52516E-01  0.62123E-01  0.71444E-01  0.78856E-01
  0.81124E-01  0.75222E-01  0.62034E-01  0.48115E-01  0.42130E-01  0.48115E-01
  0.62034E-01  0.75222E-01  0.81124E-01  0.78856E-01  0.71444E-01  0.62123E-01
  0.52516E-01  0.43074E-01  0.34011E-01  0.25689E-01  0.18643E-01  0.13429E-01
  0.98394E-02  0.11335E-01  0.13556E-01  0.17532E-01  0.23631E-01  0.31536E-01
  0.41046E-01  0.52516E-01  0.66219E-01  0.81604E-01  0.97504E-01  0.11267E+00
  0.12559E+00  0.13440E+00  0.13814E+00  0.13823E+00  0.13773E+00  0.13823E+00
  0.13814E+00  0.13440E+00  0.12559E+00  0.11267E+00  0.97504E-01  0.81604E-01
  0.66219E-01  0.52516E-01  0.41046E-01  0.31536E-01  0.23631E-01  0.17532E-01
  0.11778E-01  0.13868E-01  0.16019E-01  0.19824E-01  0.26280E-01  0.35304E-01
  0.46923E-01  0.62123E-01  0.81604E-01  0.10416E+00  0.12729E+00  0.14913E+00
  0.16882E+00  0.18511E+00  0.19638E+00  0.20224E+00  0.20389E+00  0.20224E+00
  0.19638E+00  0.18511E+00  0.16882E+00  0.14913E+00  0.12729E+00  0.10416E+00
  0.81604E-01  0.62123E-01  0.46923E-01  0.35304E-01  0.26280E-01  0.19824E-01
  0.14612E-01  0.17255E-01  0.17062E-01  0.17830E-01  0.23428E-01  0.34690E-01
  0.50678E-01  0.71444E-01  0.97504E-01  0.12729E+00  0.15731E+00  0.18503E+00
  0.20979E+00  0.23075E+00  0.24604E+00  0.25458E+00  0.25716E+00  0.25458E+00
  0.24604E+00  0.23075E+00  0.20979E+00  0.18503E+00  0.15731E+00  0.12729E+00
  0.97504E-01  0.71444E-01  0.50678E-01  0.34690E-01  0.23428E-01  0.17830E-01
  0.19041E-01  0.21453E-01  0.13722E-01  0.54147E-02  0.77349E-02  0.23700E-01
  0.48847E-01  0.78856E-01  0.11267E+00  0.14913E+00  0.18503E+00  0.21762E+00
  0.24639E+00  0.27101E+00  0.28961E+00  0.30055E+00  0.30401E+00  0.30055E+00
  0.28961E+00  0.27101E+00  0.24639E+00  0.21762E+00  0.18503E+00  0.14913E+00
  0.11267E+00  0.78856E-01  0.48847E-01  0.23700E-01  0.77349E-02  0.54147E-02
  0.21579E-01  0.21386E-01 -0.21791E-02 -0.28429E-01 -0.32482E-01 -0.73792E-02
  0.35128E-01  0.81124E-01  0.12559E+00  0.16882E+00  0.20979E+00  0.24639E+00
  0.27819E+00  0.30539E+00  0.32655E+00  0.33964E+00  0.34397E+00  0.33964E+00
  0.32655E+00  0.30539E+00  0.27819E+00  0.24639E+00  0.20979E+00  0.16882E+00
  0.12559E+00  0.81124E-01  0.35128E-01 -0.73792E-02 -0.32482E-01 -0.28430E-01
  0.15555E-01  0.89809E-02 -0.39241E-01 -0.91942E-01 -0.10455E+00 -0.64633E-01
  0.49535E-02  0.75222E-01  0.13440E+00  0.18511E+00  0.23075E+00  0.27101E+00
  0.30539E+00  0.33434E+00  0.35713E+00  0.37173E+00  0.37672E+00  0.37173E+00
  0.35713E+00  0.33434E+00  0.30539E+00  0.27101E+00  0.23075E+00  0.18511E+00
  0.13440E+00  0.75222E-01  0.49535E-02 -0.64633E-01 -0.10455E+00 -0.91942E-01
 -0.13312E-02 -0.17338E-01 -0.94434E-01 -0.17673E+00 -0.19781E+00 -0.13937E+00
 -0.37181E-01  0.62034E-01  0.13814E+00  0.19638E+00  0.24604E+00  0.28961E+00
  0.32655E+00  0.35713E+00  0.38114E+00  0.39683E+00  0.40229E+00  0.39683E+00
  0.38114E+00  0.35713E+00  0.32655E+00  0.28961E+00  0.24604E+00  0.19638E+00
  0.13814E+00  0.62034E-01 -0.37181E-01 -0.13937E+00 -0.19781E+00 -0.17673E+00
 -0.21028E-01 -0.45879E-01 -0.14680E+00 -0.25273E+00 -0.27984E+00 -0.20529E+00
 -0.75493E-01  0.48115E-01  0.13823E+00  0.20224E+00  0.25458E+00  0.30055E+00
  0.33964E+00  0.37173E+00  0.39683E+00  0.41336E+00  0.41918E+00  0.41336E+00
  0.39683E+00  0.37173E+00  0.33964E+00  0.30055E+00  0.25458E+00  0.20224E+00
  0.13823E+00  0.48115E-01 -0.75493E-01 -0.20529E+00 -0.27984E+00 -0.25273E+00
 -0.29862E-01 -0.58365E-01 -0.16858E+00 -0.28356E+00 -0.31282E+00 -0.23182E+00
 -0.91098E-01  0.42130E-01  0.13773E+00  0.20389E+00  0.25716E+00  0.30401E+00
  0.34397E+00  0.37672E+00  0.40229E+00  0.41918E+00  0.42514E+00  0.41918E+00
  0.40229E+00  0.37672E+00  0.34397E+00  0.30401E+00  0.25716E+00  0.20389E+00
  0.13773E+00  0.42130E-01 -0.91098E-01 -0.23182E+00 -0.31282E+00 -0.28356E+00
 -0.21028E-01 -0.45879E-01 -0.14680E+00 -0.25273E+00 -0.27984E+00 -0.20529E+00
 -0.75493E-01  0.48115E-01  0.13823E+00  0.20224E+00  0.25458E+00  0.30055E+00
  0.33964E+00  0.37173E+00  0.39683E+00  0.41336E+00  0.41918E+00  0.41336E+00
  0.39683E+00  0.37173E+00  0.33964E+00  0.30055E+00  0.25458E+00  0.20224E+00
  0.13823E+00  0.48115E-01 -0.75493E-01 -0.20529E+00 -0.27984E+00 -0.25273E+00
 -0.13312E-02 -0.17338E-01 -0.94434E-01 -0.17673E+00 -0.19781E+00 -0.13937E+00
 -0.37181E-01  0.62034E-01  0.13814E+00  0.19638E+00  0.24604E+00  0.28961E+00
  0.32655E+00  0.35713E+00  0.38114E+00  0.39683E+00  0.40229E+00  0.39683E+00
  0.38114E+00  0.35713E+00  0.32655E+00  0.28961E+00  0.24604E+00  0.19638E+00
  0.13814E+00  0.62034E-01 -0.37181E-01 -0.13937E+00 -0.19781E+00 -0.17673E+00
  0.15555E-01  0.89809E-02 -0.39241E-01 -0.91942E-01 -0.10455E+00 -0.64633E-01
  0.49535E-02  0.75222E-01  0.13440E+00  0.18511E+00  0.23075E+00  0.27101E+00
  0.30539E+00  0.33434E+00  0.35713E+00  0.37173E+00  0.37672E+00  0.37173E+00
  0.35713E+00  0.33434E+00  0.30539E+00  0.27101E+00  0.23075E+00  0.18511E+00
  0.13440E+00  0.75222E-01  0.49535E-02 -0.64633E-01 -0.10455E+00 -0.91942E-01
  0.21579E-01  0.21386E-01 -0.21791E-02 -0.28430E-01 -0.32482E-01 -0.73792E-02
  0.35128E-01  0.81124E-01  0.12559E+00  0.16882E+00  0.20979E+00  0.24639E+00
  0.27819E+00  0.30539E+00  0.32655E+00  0.33964E+00  0.34397E+00  0.33964E+00
  0.32655E+00  0.30539E+00  0.27819E+00  0.24639E+00  0.20979E+00  0.16882E+00
  0.12559E+00  0.81124E-01  0.35128E-01 -0.73792E-02 -0.32482E-01 -0.28430E-01
  0.19041E-01  0.21453E-01  0.13722E-01  0.54147E-02  0.77349E-02  0.23700E-01
  0.48847E-01  0.78856E-01  0.11267E+00  0.14913E+00  0.18503E+00  0.21762E+00
  0.24639E+00  0.27101E+00  0.28961E+00  0.30055E+00  0.30401E+00  0.30055E+00
  0.28961E+00  0.27101E+00  0.24639E+00  0.21762E+00  0.18503E+00  0.14913E+00
  0.11267E+00  0.78856E-01  0.48847E-01  0.23700E-01  0.77349E-02  0.54147E-02
  0.14612E-01  0.17255E-01  0.17062E-01  0.17830E-01  0.23428E-01  0.34690E-01
  0.50678E-01  0.71444E-01  0.97504E-01  0.12729E+00  0.15731E+00  0.18503E+00
  0.20979E+00  0.23075E+00  0.24604E+00  0.25458E+00  0.25716E+00  0.25458E+00
  0.24604E+00  0.23075E+00  0.20979E+00  0.18503E+00  0.15731E+00  0.12729E+00
  0.97504E-01  0.71444E-01  0.50678E-01  0.34690E-01  0.23428E-01  0.17830E-01
  0.11778E-01  0.13868E-01  0.16019E-01  0.19824E-01  0.26280E-01  0.35304E-01
  0.46923E-01  0.62123E-01  0.81604E-01  0.10416E+00  0.12729E+00  0.14913E+00
  0.16882E+00  0.18511E+00  0.19638E+00  0.20224E+00  0.20389E+00  0.20224E+00
  0.19638E+00  0.18511E+00  0.16882E+00  0.14913E+00  0.12729E+00  0.10416E+00
  0.81604E-01  0.62123E-01  0.46923E-01  0.35304E-01  0.26280E-01  0.19824E-01
  0.98394E-02  0.11335E-01  0.13556E-01  0.17532E-01  0.23631E-01  0.31536E-01
  0.41046E-01  0.52516E-01  0.66219E-01  0.81604E-01  0.97504E-01  0.11267E+00
  0.12559E+00  0.13440E+00  0.13814E+00  0.13823E+00  0.13773E+00  0.13823E+00
  0.13814E+00  0.13440E+00  0.12559E+00  0.11267E+00  0.97504E-01  0.81604E-01
  0.66219E-01  0.52516E-01  0.41046E-01  0.31536E-01  0.23631E-01  0.17532E-01
  0.75865E-02  0.85910E-02  0.10237E-01  0.13429E-01  0.18643E-01  0.25689E-01
  0.34011E-01  0.43074E-01  0.52516E-01  0.62123E-01  0.71444E-01  0.78856E-01
  0.81124E-01  0.75222E-01  0.62034E-01  0.48115E-01  0.42130E-01  0.48115E-01
  0.62034E-01  0.75222E-01  0.81124E-01  0.78856E-01  0.71444E-01  0.62123E-01
  0.52516E-01  0.43074E-01  0.34011E-01  0.25689E-01  0.18643E-01  0.13429E-01
  0.53169E-02  0.59738E-02  0.70596E-02  0.92872E-02  0.13266E-01  0.19125E-01
  0.26373E-01  0.34011E-01  0.41046E-01  0.46923E-01  0.50678E-01  0.48847E-01
  0.35128E-01  0.49535E-02 -0.37181E-01 -0.75493E-01 -0.91098E-01 -0.75493E-01
 -0.37181E-01  0.49535E-02  0.35128E-01  0.48847E-01  0.50678E-01  0.46923E-01
  0.41046E-01  0.34011E-01  0.26373E-01  0.19125E-01  0.13266E-01  0.92872E-02
  0.36401E-02  0.41016E-02  0.48716E-02  0.63380E-02  0.89964E-02  0.13269E-01
  0.19125E-01  0.25689E-01  0.31536E-01  0.35304E-01  0.34690E-01  0.23700E-01
 -0.73792E-02 -0.64633E-01 -0.13937E+00 -0.20529E+00 -0.23182E+00 -0.20529E+00
 -0.13937E+00 -0.64633E-01 -0.73792E-02  0.23700E-01  0.34690E-01  0.35304E-01
  0.31536E-01  0.25689E-01  0.19125E-01  0.13269E-01  0.89964E-02  0.63380E-02
  0.23701E-02  0.26674E-02  0.33510E-02  0.44972E-02  0.62318E-02  0.89964E-02
  0.13266E-01  0.18643E-01  0.23631E-01  0.26280E-01  0.23428E-01  0.77349E-02
 -0.32482E-01 -0.10455E+00 -0.19781E+00 -0.27984E+00 -0.31282E+00 -0.27984E+00
 -0.19781E+00 -0.10455E+00 -0.32482E-01  0.77349E-02  0.23428E-01  0.26280E-01
  0.23631E-01  0.18643E-01  0.13266E-01  0.89964E-02  0.62318E-02  0.44972E-02
  0.12131E-02  0.12513E-02  0.18822E-02  0.30654E-02  0.44972E-02  0.63380E-02
  0.92872E-02  0.13429E-01  0.17532E-01  0.19824E-01  0.17830E-01  0.54147E-02
 -0.28430E-01 -0.91942E-01 -0.17673E+00 -0.25273E+00 -0.28356E+00 -0.25273E+00
 -0.17673E+00 -0.91942E-01 -0.28430E-01  0.54147E-02  0.17830E-01  0.19824E-01
  0.17532E-01  0.13429E-01  0.92872E-02  0.63380E-02  0.44972E-02  0.30654E-02
  0.49676E-03  0.11866E-03  0.67339E-04  0.76365E-03  0.19657E-02  0.33563E-02
  0.52186E-02  0.78195E-02  0.10666E-01  0.13572E-01  0.18109E-01  0.25997E-01
  0.35217E-01  0.39754E-01  0.35611E-01  0.26682E-01  0.22095E-01  0.26682E-01
  0.35611E-01  0.39754E-01  0.35217E-01  0.25997E-01  0.18109E-01  0.13572E-01
  0.10666E-01  0.78195E-02  0.52186E-02  0.33563E-02  0.19657E-02  0.76365E-03
  0.11866E-03 -0.41315E-03 -0.32835E-03  0.65093E-03  0.20972E-02  0.37014E-02
  0.59201E-02  0.91107E-02  0.12685E-01  0.16299E-01  0.21209E-01  0.28101E-01
  0.33053E-01  0.28567E-01  0.11845E-01 -0.85579E-02 -0.17828E-01 -0.85579E-02
  0.11845E-01  0.28567E-01  0.33053E-01  0.28101E-01  0.21209E-01  0.16299E-01
  0.12685E-01  0.91107E-02  0.59201E-02  0.37014E-02  0.20972E-02  0.65093E-03
  0.67337E-04 -0.32835E-03  0.40676E-07  0.11502E-02  0.27268E-02  0.46379E-02
  0.74723E-02  0.11461E-01  0.15681E-01  0.19116E-01  0.21391E-01  0.20142E-01
  0.80603E-02 -0.23060E-01 -0.71125E-01 -0.11749E+00 -0.13690E+00 -0.11749E+00
 -0.71125E-01 -0.23060E-01  0.80603E-02  0.20142E-01  0.21391E-01  0.19116E-01
  0.15681E-01  0.11461E-01  0.74723E-02  0.46379E-02  0.27268E-02  0.11502E-02
  0.76365E-03  0.65093E-03  0.11502E-02  0.23472E-02  0.41276E-02  0.66635E-02
  0.10450E-01  0.15350E-01  0.20088E-01  0.23062E-01  0.22197E-01  0.11979E-01
 -0.17954E-01 -0.75748E-01 -0.15401E+00 -0.22470E+00 -0.25347E+00 -0.22470E+00
 -0.15401E+00 -0.75748E-01 -0.17954E-01  0.11979E-01  0.22197E-01  0.23062E-01
  0.20088E-01  0.15350E-01  0.10450E-01  0.66635E-02  0.41276E-02  0.23472E-02
  0.19657E-02  0.20972E-02  0.27268E-02  0.41276E-02  0.65069E-02  0.10107E-01
  0.15071E-01  0.20856E-01  0.26160E-01  0.29489E-01  0.28253E-01  0.15697E-01
 -0.19472E-01 -0.84816E-01 -0.17089E+00 -0.24729E+00 -0.27813E+00 -0.24729E+00
 -0.17089E+00 -0.84816E-01 -0.19472E-01  0.15697E-01  0.28253E-01  0.29489E-01
  0.26160E-01  0.20856E-01  0.15071E-01  0.10107E-01  0.65069E-02  0.41276E-02
  0.33563E-02  0.37014E-02  0.46379E-02  0.66635E-02  0.10107E-01  0.15035E-01
  0.21208E-01  0.27942E-01  0.34337E-01  0.39597E-01  0.41839E-01  0.35338E-01
  0.10453E-01 -0.39319E-01 -0.10651E+00 -0.16669E+00 -0.19106E+00 -0.16669E+00
 -0.10651E+00 -0.39319E-01  0.10453E-01  0.35338E-01  0.41839E-01  0.39597E-01
  0.34337E-01  0.27942E-01  0.21208E-01  0.15035E-01  0.10107E-01  0.66635E-02
  0.52186E-02  0.59201E-02  0.74723E-02  0.10450E-01  0.15071E-01  0.21208E-01
  0.28573E-01  0.36793E-01  0.45539E-01  0.54569E-01  0.62820E-01  0.66574E-01
  0.59306E-01  0.36091E-01  0.57797E-03 -0.32826E-01 -0.46604E-01 -0.32826E-01
  0.57797E-03  0.36091E-01  0.59306E-01  0.66574E-01  0.62820E-01  0.54569E-01
  0.45539E-01  0.36793E-01  0.28573E-01  0.21208E-01  0.15071E-01  0.10450E-01
  0.78195E-02  0.91107E-02  0.11461E-01  0.15350E-01  0.20856E-01  0.27942E-01
  0.36793E-01  0.47717E-01  0.60746E-01  0.75404E-01  0.90546E-01  0.10389E+00
  0.11189E+00  0.11140E+00  0.10301E+00  0.92544E-01  0.87835E-01  0.92544E-01
  0.10301E+00  0.11140E+00  0.11189E+00  0.10389E+00  0.90546E-01  0.75404E-01
  0.60746E-01  0.47717E-01  0.36793E-01  0.27942E-01  0.20856E-01  0.15350E-01
  0.10666E-01  0.12685E-01  0.15681E-01  0.20088E-01  0.26160E-01  0.34337E-01
  0.45539E-01  0.60746E-01  0.79955E-01  0.10171E+00  0.12385E+00  0.14452E+00
  0.16210E+00  0.17487E+00  0.18188E+00  0.18427E+00  0.18461E+00  0.18427E+00
  0.18188E+00  0.17487E+00  0.16210E+00  0.14452E+00  0.12385E+00  0.10171E+00
  0.79955E-01  0.60746E-01  0.45539E-01  0.34337E-01  0.26160E-01  0.20088E-01
  0.13572E-01  0.16299E-01  0.19116E-01  0.23062E-01  0.29489E-01  0.39597E-01
  0.54569E-01  0.75404E-01  0.10171E+00  0.13093E+00  0.15980E+00  0.18640E+00
  0.21012E+00  0.22999E+00  0.24429E+00  0.25225E+00  0.25467E+00  0.25225E+00
  0.24429E+00  0.22999E+00  0.21012E+00  0.18640E+00  0.15980E+00  0.13093E+00
  0.10171E+00  0.75404E-01  0.54569E-01  0.39597E-01  0.29489E-01  0.23062E-01
  0.18109E-01  0.21209E-01  0.21391E-01  0.22197E-01  0.28253E-01  0.41839E-01
  0.62820E-01  0.90546E-01  0.12385E+00  0.15980E+00  0.19474E+00  0.22680E+00
  0.25599E+00  0.28152E+00  0.30096E+00  0.31241E+00  0.31604E+00  0.31241E+00
  0.30096E+00  0.28152E+00  0.25599E+00  0.22680E+00  0.19474E+00  0.15980E+00
  0.12385E+00  0.90546E-01  0.62820E-01  0.41839E-01  0.28253E-01  0.22197E-01
  0.25997E-01  0.28101E-01  0.20142E-01  0.11979E-01  0.15697E-01  0.35338E-01
  0.66574E-01  0.10389E+00  0.14452E+00  0.18640E+00  0.22680E+00  0.26422E+00
  0.29894E+00  0.33025E+00  0.35502E+00  0.37025E+00  0.37524E+00  0.37025E+00
  0.35502E+00  0.33025E+00  0.29894E+00  0.26422E+00  0.22680E+00  0.18640E+00
  0.14452E+00  0.10389E+00  0.66574E-01  0.35338E-01  0.15697E-01  0.11979E-01
  0.35217E-01  0.33053E-01  0.80603E-02 -0.17954E-01 -0.19472E-01  0.10453E-01
  0.59306E-01  0.11189E+00  0.16210E+00  0.21012E+00  0.25599E+00  0.29894E+00
  0.33907E+00  0.37564E+00  0.40532E+00  0.42425E+00  0.43063E+00  0.42425E+00
  0.40532E+00  0.37564E+00  0.33907E+00  0.29894E+00  0.25599E+00  0.21012E+00
  0.16210E+00  0.11189E+00  0.59306E-01  0.10453E-01 -0.19472E-01 -0.17954E-01
  0.39754E-01  0.28567E-01 -0.23060E-01 -0.75748E-01 -0.84816E-01 -0.39319E-01
  0.36091E-01  0.11140E+00  0.17487E+00  0.22999E+00  0.28152E+00  0.33025E+00
  0.37564E+00  0.41664E+00  0.45017E+00  0.47204E+00  0.47957E+00  0.47204E+00
  0.45017E+00  0.41664E+00  0.37564E+00  0.33025E+00  0.28152E+00  0.22999E+00