       #
       # Generated by the Wannier90 code http://www.wannier.org
       # On 12Dec2023 at 23:35:55 
       #
CRYSTAL
PRIMVEC
   3.4751459   0.0000000   0.0000000
   0.0000000   3.4751459   0.0000000
   0.0000000   0.0000000   3.4751459
CONVVEC
   3.4751459   0.0000000   0.0000000
   0.0000000   3.4751459   0.0000000
   0.0000000   0.0000000   3.4751459
PRIMCOORD
     4  1
Ni      1.7375729   1.7375729   1.7375729
Ni      1.7375729   0.0000000   0.0000000
Ni      0.0000000   1.7375729   0.0000000
Ni      0.0000000   0.0000000   1.7375729


BEGIN_BLOCK_DATAGRID_3D
3D_field
BEGIN_DATAGRID_3D_UNKNOWN
    30    30    30
   -0.115838   -0.115838   -0.115838
   3.3593077   0.0000000   0.0000000
   0.0000000   3.3593077   0.0000000
   0.0000000   0.0000000   3.3593077
  0.26170E-01  0.27176E-01  0.26404E-01  0.22736E-01  0.17021E-01  0.10621E-01
  0.35529E-02 -0.43076E-02 -0.11414E-01 -0.17215E-01 -0.26146E-01 -0.43544E-01
 -0.64718E-01 -0.73430E-01 -0.58499E-01 -0.30991E-01 -0.17165E-01 -0.30991E-01
 -0.58499E-01 -0.73430E-01 -0.64718E-01 -0.43544E-01 -0.26146E-01 -0.17215E-01
 -0.11414E-01 -0.43076E-02  0.35529E-02  0.10621E-01  0.17021E-01  0.22736E-01
  0.28148E-01  0.27990E-01  0.25110E-01  0.19412E-01  0.12626E-01  0.61929E-02
 -0.47184E-03 -0.80771E-02 -0.15315E-01 -0.21777E-01 -0.31776E-01 -0.49095E-01
 -0.65512E-01 -0.61554E-01 -0.27361E-01  0.18415E-01  0.39815E-01  0.18415E-01
 -0.27361E-01 -0.61554E-01 -0.65512E-01 -0.49095E-01 -0.31776E-01 -0.21777E-01
 -0.15315E-01 -0.80771E-02 -0.47184E-03  0.61929E-02  0.12626E-01  0.19412E-01
  0.28689E-01  0.26758E-01  0.22255E-01  0.15871E-01  0.93679E-02  0.35201E-02
 -0.30749E-02 -0.11597E-01 -0.20618E-01 -0.28850E-01 -0.38775E-01 -0.51630E-01
 -0.57134E-01 -0.36089E-01  0.17649E-01  0.79178E-01  0.10664E+00  0.79178E-01
  0.17649E-01 -0.36089E-01 -0.57134E-01 -0.51630E-01 -0.38775E-01 -0.28850E-01
 -0.20618E-01 -0.11597E-01 -0.30749E-02  0.35201E-02  0.93679E-02  0.15871E-01
  0.27412E-01  0.24190E-01  0.19397E-01  0.13696E-01  0.79457E-02  0.19723E-02
 -0.60070E-02 -0.17064E-01 -0.29281E-01 -0.39997E-01 -0.49222E-01 -0.56054E-01
 -0.50740E-01 -0.17745E-01  0.44926E-01  0.11089E+00  0.13950E+00  0.11089E+00
  0.44926E-01 -0.17745E-01 -0.50740E-01 -0.56054E-01 -0.49222E-01 -0.39997E-01
 -0.29281E-01 -0.17064E-01 -0.60069E-02  0.19723E-02  0.79457E-02  0.13696E-01
  0.24937E-01  0.21459E-01  0.17517E-01  0.12942E-01  0.73079E-02 -0.11622E-03
 -0.10637E-01 -0.24670E-01 -0.39968E-01 -0.53058E-01 -0.62115E-01 -0.65242E-01
 -0.55286E-01 -0.22095E-01  0.33563E-01  0.89510E-01  0.11337E+00  0.89510E-01
  0.33563E-01 -0.22095E-01 -0.55286E-01 -0.65242E-01 -0.62115E-01 -0.53058E-01
 -0.39968E-01 -0.24670E-01 -0.10637E-01 -0.11622E-03  0.73079E-02  0.12942E-01
  0.22005E-01  0.19231E-01  0.16552E-01  0.12625E-01  0.60095E-02 -0.38401E-02
 -0.16991E-01 -0.32967E-01 -0.49794E-01 -0.64404E-01 -0.74433E-01 -0.77957E-01
 -0.70875E-01 -0.47999E-01 -0.10960E-01  0.25624E-01  0.41116E-01  0.25624E-01
 -0.10960E-01 -0.47999E-01 -0.70875E-01 -0.77957E-01 -0.74433E-01 -0.64404E-01
 -0.49794E-01 -0.32967E-01 -0.16991E-01 -0.38401E-02  0.60095E-02  0.12625E-01
  0.18759E-01  0.17444E-01  0.16019E-01  0.12131E-01  0.39185E-02 -0.84600E-02
 -0.23606E-01 -0.40200E-01 -0.56961E-01 -0.72148E-01 -0.83971E-01 -0.90904E-01
 -0.90967E-01 -0.82102E-01 -0.65523E-01 -0.48531E-01 -0.41251E-01 -0.48531E-01
 -0.65523E-01 -0.82102E-01 -0.90967E-01 -0.90904E-01 -0.83971E-01 -0.72148E-01
 -0.56961E-01 -0.40200E-01 -0.23606E-01 -0.84600E-02  0.39185E-02  0.12131E-01
  0.15044E-01  0.15812E-01  0.15654E-01  0.11713E-01  0.22648E-02 -0.11820E-01
 -0.28140E-01 -0.44831E-01 -0.61179E-01 -0.76728E-01 -0.90631E-01 -0.10182E+00
 -0.10918E+00 -0.11183E+00 -0.11009E+00 -0.10651E+00 -0.10473E+00 -0.10651E+00
 -0.11009E+00 -0.11183E+00 -0.10918E+00 -0.10182E+00 -0.90631E-01 -0.76728E-01
 -0.61179E-01 -0.44831E-01 -0.28140E-01 -0.11820E-01  0.22648E-02  0.11713E-01
  0.10715E-01  0.14177E-01  0.15645E-01  0.12125E-01  0.24090E-02 -0.12106E-01
 -0.28769E-01 -0.45704E-01 -0.62439E-01 -0.79014E-01 -0.95101E-01 -0.10996E+00
 -0.12267E+00 -0.13232E+00 -0.13837E+00 -0.14124E+00 -0.14201E+00 -0.14124E+00
 -0.13837E+00 -0.13232E+00 -0.12267E+00 -0.10996E+00 -0.95101E-01 -0.79014E-01
 -0.62439E-01 -0.45704E-01 -0.28769E-01 -0.12106E-01  0.24090E-02  0.12125E-01
  0.43127E-02  0.12192E-01  0.17182E-01  0.15392E-01  0.60999E-02 -0.83854E-02
 -0.25131E-01 -0.42597E-01 -0.60564E-01 -0.78934E-01 -0.97195E-01 -0.11466E+00
 -0.13051E+00 -0.14360E+00 -0.15280E+00 -0.15787E+00 -0.15942E+00 -0.15787E+00
 -0.15280E+00 -0.14360E+00 -0.13051E+00 -0.11466E+00 -0.97195E-01 -0.78934E-01
 -0.60564E-01 -0.42597E-01 -0.25131E-01 -0.83854E-02  0.60999E-02  0.15392E-01
 -0.85560E-02  0.89236E-02  0.23201E-01  0.26481E-01  0.17614E-01  0.12740E-02
 -0.17360E-01 -0.36278E-01 -0.55790E-01 -0.75950E-01 -0.95864E-01 -0.11462E+00
 -0.13159E+00 -0.14575E+00 -0.15584E+00 -0.16143E+00 -0.16313E+00 -0.16143E+00
 -0.15584E+00 -0.14575E+00 -0.13159E+00 -0.11462E+00 -0.95864E-01 -0.75950E-01
 -0.55790E-01 -0.36278E-01 -0.17360E-01  0.12740E-02  0.17614E-01  0.26481E-01
 -0.32937E-01  0.34280E-02  0.37093E-01  0.51401E-01  0.42834E-01  0.20438E-01
 -0.46411E-02 -0.27473E-01 -0.48779E-01 -0.69845E-01 -0.90142E-01 -0.10861E+00
 -0.12479E+00 -0.13818E+00 -0.14785E+00 -0.15331E+00 -0.15500E+00 -0.15331E+00
 -0.14785E+00 -0.13818E+00 -0.12479E+00 -0.10861E+00 -0.90142E-01 -0.69845E-01
 -0.48779E-01 -0.27473E-01 -0.46411E-02  0.20438E-01  0.42834E-01  0.51401E-01
 -0.67126E-01 -0.38167E-02  0.57966E-01  0.88923E-01  0.81206E-01  0.49228E-01
  0.13123E-01 -0.16500E-01 -0.39937E-01 -0.60610E-01 -0.79591E-01 -0.96206E-01
 -0.11015E+00 -0.12145E+00 -0.12976E+00 -0.13465E+00 -0.13622E+00 -0.13465E+00
 -0.12976E+00 -0.12145E+00 -0.11015E+00 -0.96206E-01 -0.79591E-01 -0.60610E-01
 -0.39937E-01 -0.16500E-01  0.13123E-01  0.49228E-01  0.81206E-01  0.88923E-01
 -0.96852E-01 -0.10207E-01  0.76230E-01  0.12264E+00  0.11686E+00  0.77025E-01
  0.30956E-01 -0.48951E-02 -0.29541E-01 -0.48274E-01 -0.64290E-01 -0.77841E-01
 -0.88797E-01 -0.97494E-01 -0.10401E+00 -0.10803E+00 -0.10937E+00 -0.10803E+00
 -0.10401E+00 -0.97494E-01 -0.88797E-01 -0.77841E-01 -0.64290E-01 -0.48274E-01
 -0.29541E-01 -0.48951E-02  0.30956E-01  0.77025E-01  0.11686E+00  0.12264E+00
 -0.10043E+00 -0.12292E-01  0.76461E-01  0.12578E+00  0.12253E+00  0.83969E-01
  0.38308E-01  0.34277E-02 -0.18611E-01 -0.33332E-01 -0.44988E-01 -0.54618E-01
 -0.62268E-01 -0.68279E-01 -0.72873E-01 -0.75836E-01 -0.76863E-01 -0.75836E-01
 -0.72873E-01 -0.68279E-01 -0.62268E-01 -0.54618E-01 -0.44988E-01 -0.33332E-01
 -0.18611E-01  0.34277E-02  0.38308E-01  0.83969E-01  0.12253E+00  0.12578E+00
 -0.64903E-01 -0.83325E-02  0.48858E-01  0.81184E-01  0.79962E-01  0.55840E-01
  0.26818E-01  0.47496E-02 -0.86428E-02 -0.16899E-01 -0.23069E-01 -0.28104E-01
 -0.32100E-01 -0.35247E-01 -0.37693E-01 -0.39315E-01 -0.39889E-01 -0.39315E-01
 -0.37693E-01 -0.35247E-01 -0.32100E-01 -0.28104E-01 -0.23069E-01 -0.16899E-01
 -0.86428E-02  0.47496E-02  0.26818E-01  0.55840E-01  0.79962E-01  0.81184E-01
 -0.11081E-08 -0.34306E-09 -0.18368E-08 -0.43227E-08 -0.54145E-08 -0.40756E-08
 -0.14708E-08  0.54286E-09  0.12535E-08  0.12329E-08  0.11592E-08  0.10988E-08
  0.87285E-09  0.56226E-09  0.39434E-09  0.41782E-09  0.53471E-09  0.68928E-09
  0.83120E-09  0.83842E-09  0.67879E-09  0.52879E-09  0.54047E-09  0.65131E-09
  0.89601E-09  0.17097E-08  0.33954E-08  0.52359E-08  0.57723E-08  0.44678E-08
  0.64903E-01  0.83325E-02 -0.48858E-01 -0.81184E-01 -0.79962E-01 -0.55840E-01
 -0.26818E-01 -0.47496E-02  0.86429E-02  0.16899E-01  0.23069E-01  0.28104E-01
  0.32100E-01  0.35247E-01  0.37693E-01  0.39315E-01  0.39889E-01  0.39315E-01
  0.37693E-01  0.35247E-01  0.32100E-01  0.28104E-01  0.23069E-01  0.16899E-01
  0.86429E-02 -0.47496E-02 -0.26818E-01 -0.55840E-01 -0.79962E-01 -0.81184E-01
  0.10043E+00  0.12292E-01 -0.76461E-01 -0.12578E+00 -0.12253E+00 -0.83969E-01
 -0.38308E-01 -0.34277E-02  0.18611E-01  0.33332E-01  0.44988E-01  0.54618E-01
  0.62268E-01  0.68279E-01  0.72873E-01  0.75836E-01  0.76863E-01  0.75836E-01
  0.72873E-01  0.68279E-01  0.62268E-01  0.54618E-01  0.44988E-01  0.33332E-01
  0.18611E-01 -0.34277E-02 -0.38308E-01 -0.83969E-01 -0.12253E+00 -0.12578E+00
  0.96852E-01  0.10207E-01 -0.76230E-01 -0.12264E+00 -0.11686E+00 -0.77025E-01
 -0.30956E-01  0.48951E-02  0.29541E-01  0.48274E-01  0.64290E-01  0.77841E-01
  0.88797E-01  0.97494E-01  0.10401E+00  0.10803E+00  0.10937E+00  0.10803E+00
  0.10401E+00  0.97494E-01  0.88797E-01  0.77841E-01  0.64290E-01  0.48274E-01
  0.29541E-01  0.48951E-02 -0.30956E-01 -0.77025E-01 -0.11686E+00 -0.12264E+00
  0.67126E-01  0.38167E-02 -0.57966E-01 -0.88923E-01 -0.81206E-01 -0.49228E-01
 -0.13123E-01  0.16500E-01  0.39937E-01  0.60610E-01  0.79591E-01  0.96206E-01
  0.11015E+00  0.12145E+00  0.12976E+00  0.13465E+00  0.13622E+00  0.13465E+00
  0.12976E+00  0.12145E+00  0.11015E+00  0.96206E-01  0.79591E-01  0.60610E-01
  0.39937E-01  0.16500E-01 -0.13123E-01 -0.49228E-01 -0.81206E-01 -0.88923E-01
  0.32937E-01 -0.34280E-02 -0.37093E-01 -0.51401E-01 -0.42834E-01 -0.20438E-01
  0.46411E-02  0.27473E-01  0.48779E-01  0.69845E-01  0.90142E-01  0.10861E+00
  0.12479E+00  0.13818E+00  0.14785E+00  0.15331E+00  0.15500E+00  0.15331E+00
  0.14785E+00  0.13818E+00  0.12479E+00  0.10861E+00  0.90142E-01  0.69845E-01
  0.48779E-01  0.27473E-01  0.46411E-02 -0.20438E-01 -0.42834E-01 -0.51401E-01
  0.85560E-02 -0.89236E-02 -0.23201E-01 -0.26481E-01 -0.17614E-01 -0.12740E-02
  0.17360E-01  0.36278E-01  0.55790E-01  0.75950E-01  0.95864E-01  0.11462E+00
  0.13159E+00  0.14575E+00  0.15584E+00  0.16143E+00  0.16313E+00  0.16143E+00
  0.15584E+00  0.14575E+00  0.13159E+00  0.11462E+00  0.95864E-01  0.75950E-01
  0.55790E-01  0.36278E-01  0.17360E-01 -0.12740E-02 -0.17614E-01 -0.26481E-01
 -0.43127E-02 -0.12192E-01 -0.17182E-01 -0.15392E-01 -0.60999E-02  0.83854E-02
  0.25131E-01  0.42597E-01  0.60564E-01  0.78934E-01  0.97195E-01  0.11466E+00
  0.13051E+00  0.14360E+00  0.15280E+00  0.15787E+00  0.15942E+00  0.15787E+00
  0.15280E+00  0.14360E+00  0.13051E+00  0.11466E+00  0.97195E-01  0.78934E-01
  0.60564E-01  0.42597E-01  0.25131E-01  0.83854E-02 -0.60999E-02 -0.15392E-01
 -0.10715E-01 -0.14177E-01 -0.15645E-01 -0.12125E-01 -0.24090E-02  0.12106E-01
  0.28769E-01  0.45704E-01  0.62439E-01  0.79014E-01  0.95101E-01  0.10996E+00
  0.12267E+00  0.13232E+00  0.13837E+00  0.14124E+00  0.14201E+00  0.14124E+00
  0.13837E+00  0.13232E+00  0.12267E+00  0.10996E+00  0.95101E-01  0.79014E-01
  0.62439E-01  0.45704E-01  0.28769E-01  0.12106E-01 -0.24090E-02 -0.12125E-01
 -0.15044E-01 -0.15812E-01 -0.15654E-01 -0.11713E-01 -0.22648E-02  0.11820E-01
  0.28140E-01  0.44831E-01  0.61179E-01  0.76728E-01  0.90631E-01  0.10182E+00
  0.10918E+00  0.11183E+00  0.11009E+00  0.10651E+00  0.10473E+00  0.10651E+00
  0.11009E+00  0.11183E+00  0.10918E+00  0.10182E+00  0.90631E-01  0.76728E-01
  0.61179E-01  0.44831E-01  0.28140E-01  0.11820E-01 -0.22648E-02 -0.11713E-01
 -0.18759E-01 -0.17444E-01 -0.16019E-01 -0.12131E-01 -0.39185E-02  0.84600E-02
  0.23606E-01  0.40200E-01  0.56961E-01  0.72148E-01  0.83971E-01  0.90904E-01
  0.90967E-01  0.82102E-01  0.65523E-01  0.48531E-01  0.41251E-01  0.48531E-01
  0.65523E-01  0.82102E-01  0.90967E-01  0.90904E-01  0.83971E-01  0.72148E-01
  0.56961E-01  0.40200E-01  0.23606E-01  0.84600E-02 -0.39185E-02 -0.12131E-01
 -0.22005E-01 -0.19231E-01 -0.16552E-01 -0.12625E-01 -0.60095E-02  0.38401E-02
  0.16991E-01  0.32967E-01  0.49794E-01  0.64404E-01  0.74433E-01  0.77957E-01
  0.70875E-01  0.47999E-01  0.10960E-01 -0.25624E-01 -0.41116E-01 -0.25624E-01
  0.10960E-01  0.47999E-01  0.70875E-01  0.77957E-01  0.74433E-01  0.64404E-01
  0.49794E-01  0.32967E-01  0.16991E-01  0.38401E-02 -0.60095E-02 -0.12625E-01
 -0.24937E-01 -0.21459E-01 -0.17517E-01 -0.12942E-01 -0.73079E-02  0.11623E-03
  0.10637E-01  0.24670E-01  0.39968E-01  0.53058E-01  0.62115E-01  0.65242E-01
  0.55286E-01  0.22095E-01 -0.33563E-01 -0.89510E-01 -0.11337E+00 -0.89510E-01
 -0.33563E-01  0.22095E-01  0.55286E-01  0.65242E-01  0.62115E-01  0.53058E-01
  0.39968E-01  0.24670E-01  0.10637E-01  0.11622E-03 -0.73079E-02 -0.12942E-01
 -0.27412E-01 -0.24190E-01 -0.19397E-01 -0.13696E-01 -0.79457E-02 -0.19723E-02
  0.60070E-02  0.17064E-01  0.29281E-01  0.39997E-01  0.49222E-01  0.56054E-01
  0.50739E-01  0.17745E-01 -0.44926E-01 -0.11089E+00 -0.13950E+00 -0.11089E+00
 -0.44926E-01  0.17745E-01  0.50740E-01  0.56054E-01  0.49222E-01  0.39997E-01
  0.29281E-01  0.17064E-01  0.60070E-02 -0.19723E-02 -0.79457E-02 -0.13696E-01
  0.28148E-01  0.27990E-01  0.25110E-01  0.19412E-01  0.12626E-01  0.61929E-02
 -0.47184E-03 -0.80771E-02 -0.15315E-01 -0.21777E-01 -0.31776E-01 -0.49095E-01
 -0.65512E-01 -0.61554E-01 -0.27361E-01  0.18415E-01  0.39815E-01  0.18415E-01
 -0.27361E-01 -0.61554E-01 -0.65512E-01 -0.49095E-01 -0.31776E-01 -0.21777E-01
 -0.15315E-01 -0.80771E-02 -0.47184E-03  0.61929E-02  0.12626E-01  0.19412E-01
  0.29068E-01  0.26909E-01  0.22109E-01  0.15486E-01  0.89086E-02  0.30602E-02
 -0.36287E-02 -0.12268E-01 -0.21293E-01 -0.29776E-01 -0.40674E-01 -0.53967E-01
 -0.55262E-01 -0.21027E-01  0.53988E-01  0.13626E+00  0.17241E+00  0.13626E+00
  0.53988E-01 -0.21027E-01 -0.55262E-01 -0.53967E-01 -0.40674E-01 -0.29776E-01
 -0.21293E-01 -0.12268E-01 -0.36287E-02  0.30602E-02  0.89086E-02  0.15486E-01
  0.28027E-01  0.24302E-01  0.18985E-01  0.12856E-01  0.68841E-02  0.69836E-03
 -0.77488E-02 -0.19277E-01 -0.31502E-01 -0.42128E-01 -0.51647E-01 -0.56278E-01
 -0.38117E-01  0.26373E-01  0.13635E+00  0.24713E+00  0.29432E+00  0.24713E+00
  0.13635E+00  0.26373E-01 -0.38117E-01 -0.56278E-01 -0.51647E-01 -0.42128E-01
 -0.31502E-01 -0.19277E-01 -0.77488E-02  0.69836E-03  0.68841E-02  0.12856E-01
  0.25625E-01  0.21616E-01  0.17123E-01  0.11903E-01  0.56175E-02 -0.26290E-02
 -0.14370E-01 -0.29532E-01 -0.44940E-01 -0.57111E-01 -0.64484E-01 -0.61498E-01
 -0.30945E-01  0.46998E-01  0.16726E+00  0.28346E+00  0.33217E+00  0.28346E+00
  0.16726E+00  0.46998E-01 -0.30945E-01 -0.61498E-01 -0.64484E-01 -0.57111E-01
 -0.44940E-01 -0.29532E-01 -0.14370E-01 -0.26290E-02  0.56175E-02  0.11903E-01
  0.22987E-01  0.19775E-01  0.16410E-01  0.11321E-01  0.33223E-02 -0.80363E-02
 -0.22988E-01 -0.40625E-01 -0.57856E-01 -0.71138E-01 -0.78135E-01 -0.73743E-01
 -0.44799E-01  0.22868E-01  0.12348E+00  0.21909E+00  0.25890E+00  0.21909E+00
  0.12348E+00  0.22868E-01 -0.44799E-01 -0.73743E-01 -0.78135E-01 -0.71138E-01
 -0.57856E-01 -0.40625E-01 -0.22988E-01 -0.80363E-02  0.33223E-02  0.11321E-01
  0.20782E-01  0.18720E-01  0.15867E-01  0.97587E-02 -0.77469E-03 -0.15033E-01
 -0.31815E-01 -0.49943E-01 -0.67493E-01 -0.82057E-01 -0.91586E-01 -0.92467E-01
 -0.76518E-01 -0.35120E-01  0.27861E-01  0.88191E-01  0.11339E+00  0.88191E-01
  0.27861E-01 -0.35120E-01 -0.76518E-01 -0.92467E-01 -0.91586E-01 -0.82057E-01
 -0.67493E-01 -0.49943E-01 -0.31815E-01 -0.15033E-01 -0.77469E-03  0.97587E-02
  0.18866E-01  0.17934E-01  0.14996E-01  0.74389E-02 -0.53007E-02 -0.21420E-01
 -0.38794E-01 -0.56474E-01 -0.74046E-01 -0.90598E-01 -0.10467E+00 -0.11386E+00
 -0.11379E+00 -0.99933E-01 -0.73772E-01 -0.46936E-01 -0.35452E-01 -0.46936E-01
 -0.73772E-01 -0.99933E-01 -0.11379E+00 -0.11386E+00 -0.10467E+00 -0.90597E-01
 -0.74046E-01 -0.56474E-01 -0.38794E-01 -0.21420E-01 -0.53007E-02  0.74389E-02
  0.16764E-01  0.17060E-01  0.14117E-01  0.57793E-02 -0.78491E-02 -0.24572E-01
 -0.42200E-01 -0.60175E-01 -0.78961E-01 -0.98449E-01 -0.11743E+00 -0.13401E+00
 -0.14583E+00 -0.15066E+00 -0.14847E+00 -0.14311E+00 -0.14038E+00 -0.14311E+00
 -0.14847E+00 -0.15066E+00 -0.14583E+00 -0.13401E+00 -0.11743E+00 -0.98449E-01
 -0.78961E-01 -0.60175E-01 -0.42200E-01 -0.24572E-01 -0.78491E-02  0.57793E-02
  0.14073E-01  0.16158E-01  0.14092E-01  0.62408E-02 -0.68688E-02 -0.23260E-01
 -0.41329E-01 -0.60897E-01 -0.82407E-01 -0.10547E+00 -0.12859E+00 -0.14997E+00
 -0.16810E+00 -0.18170E+00 -0.19016E+00 -0.19412E+00 -0.19516E+00 -0.19412E+00
 -0.19016E+00 -0.18170E+00 -0.16810E+00 -0.14997E+00 -0.12859E+00 -0.10547E+00
 -0.82407E-01 -0.60897E-01 -0.41329E-01 -0.23260E-01 -0.68688E-02  0.62408E-02
  0.98086E-02  0.15993E-01  0.17392E-01  0.11625E-01 -0.71034E-03 -0.17327E-01
 -0.36620E-01 -0.58521E-01 -0.83174E-01 -0.10947E+00 -0.13534E+00 -0.15905E+00
 -0.17958E+00 -0.19608E+00 -0.20768E+00 -0.21421E+00 -0.21624E+00 -0.21421E+00
 -0.20768E+00 -0.19608E+00 -0.17958E+00 -0.15905E+00 -0.13534E+00 -0.10947E+00
 -0.83174E-01 -0.58521E-01 -0.36620E-01 -0.17327E-01 -0.71034E-03  0.11625E-01
  0.15754E-02  0.18423E-01  0.29740E-01  0.28894E-01  0.15839E-01 -0.46055E-02
 -0.28015E-01 -0.53159E-01 -0.80260E-01 -0.10831E+00 -0.13512E+00 -0.15909E+00
 -0.17974E+00 -0.19657E+00 -0.20869E+00 -0.21563E+00 -0.21782E+00 -0.21563E+00
 -0.20869E+00 -0.19657E+00 -0.17974E+00 -0.15909E+00 -0.13512E+00 -0.10831E+00
 -0.80260E-01 -0.53159E-01 -0.28015E-01 -0.46055E-02  0.15839E-01  0.28894E-01
 -0.13102E-01  0.25606E-01  0.57526E-01  0.66472E-01  0.50398E-01  0.19767E-01
 -0.13540E-01 -0.44420E-01 -0.73416E-01 -0.10132E+00 -0.12708E+00 -0.14951E+00
 -0.16855E+00 -0.18422E+00 -0.19579E+00 -0.20260E+00 -0.20478E+00 -0.20260E+00
 -0.19579E+00 -0.18422E+00 -0.16855E+00 -0.14951E+00 -0.12708E+00 -0.10132E+00
 -0.73416E-01 -0.44420E-01 -0.13540E-01  0.19767E-01  0.50398E-01  0.66472E-01
 -0.32872E-01  0.37153E-01  0.98719E-01  0.12221E+00  0.10213E+00  0.56398E-01
  0.78874E-02 -0.31629E-01 -0.62527E-01 -0.88708E-01 -0.11168E+00 -0.13121E+00
 -0.14743E+00 -0.16074E+00 -0.17080E+00 -0.17694E+00 -0.17896E+00 -0.17694E+00
 -0.17080E+00 -0.16074E+00 -0.14743E+00 -0.13121E+00 -0.11168E+00 -0.88708E-01
 -0.62527E-01 -0.31629E-01  0.78874E-02  0.56398E-01  0.10213E+00  0.12221E+00
 -0.49781E-01  0.47386E-01  0.13495E+00  0.17216E+00  0.15008E+00  0.92134E-01
  0.30578E-01 -0.16273E-01 -0.47879E-01 -0.70927E-01 -0.89842E-01 -0.10561E+00
 -0.11846E+00 -0.12885E+00 -0.13677E+00 -0.14175E+00 -0.14343E+00 -0.14175E+00
 -0.13677E+00 -0.12885E+00 -0.11846E+00 -0.10561E+00 -0.89842E-01 -0.70927E-01
 -0.47879E-01 -0.16273E-01  0.30578E-01  0.92134E-01  0.15008E+00  0.17216E+00
 -0.52322E-01  0.46980E-01  0.13743E+00  0.17790E+00  0.15850E+00  0.10206E+00
  0.41472E-01 -0.34162E-02 -0.31177E-01 -0.49052E-01 -0.62758E-01 -0.74077E-01
 -0.83244E-01 -0.90545E-01 -0.96100E-01 -0.99641E-01 -0.10086E+00 -0.99641E-01
 -0.96100E-01 -0.90545E-01 -0.83244E-01 -0.74077E-01 -0.62758E-01 -0.49052E-01
 -0.31177E-01 -0.34162E-02  0.41472E-01  0.10206E+00  0.15850E+00  0.17790E+00
 -0.33936E-01  0.29895E-01  0.88312E-01  0.11511E+00  0.10370E+00  0.68298E-01
  0.29966E-01  0.18075E-02 -0.14905E-01 -0.24888E-01 -0.32182E-01 -0.38196E-01
 -0.43088E-01 -0.46960E-01 -0.49892E-01 -0.51771E-01 -0.52421E-01 -0.51771E-01
 -0.49892E-01 -0.46960E-01 -0.43088E-01 -0.38196E-01 -0.32182E-01 -0.24888E-01
 -0.14905E-01  0.18075E-02  0.29966E-01  0.68298E-01  0.10370E+00  0.11511E+00
 -0.18615E-08 -0.70904E-09 -0.20541E-08 -0.46224E-08 -0.58367E-08 -0.44934E-08
 -0.17452E-08  0.46388E-09  0.13566E-08  0.14882E-08  0.15098E-08  0.14288E-08
  0.10434E-08  0.50383E-09  0.15299E-09  0.94990E-10  0.19184E-09  0.32709E-09
  0.45548E-09  0.51880E-09  0.52211E-09  0.59199E-09  0.77577E-09  0.94477E-09
  0.11678E-08  0.19659E-08  0.36356E-08  0.52688E-08  0.51607E-08  0.27878E-08
  0.33936E-01 -0.29895E-01 -0.88312E-01 -0.11511E+00 -0.10370E+00 -0.68298E-01
 -0.29966E-01 -0.18074E-02  0.14905E-01  0.24888E-01  0.32182E-01  0.38196E-01
  0.43088E-01  0.46960E-01  0.49892E-01  0.51771E-01  0.52421E-01  0.51771E-01
  0.49892E-01  0.46960E-01  0.43088E-01  0.38196E-01  0.32182E-01  0.24888E-01
  0.14905E-01 -0.18074E-02 -0.29966E-01 -0.68298E-01 -0.10370E+00 -0.11511E+00
  0.52322E-01 -0.46980E-01 -0.13743E+00 -0.17790E+00 -0.15850E+00 -0.10206E+00
 -0.41472E-01  0.34162E-02  0.31177E-01  0.49052E-01  0.62758E-01  0.74077E-01
  0.83244E-01  0.90545E-01  0.96100E-01  0.99641E-01  0.10086E+00  0.99641E-01
  0.96100E-01  0.90545E-01  0.83244E-01  0.74077E-01  0.62758E-01  0.49052E-01
  0.31177E-01  0.34162E-02 -0.41472E-01 -0.10206E+00 -0.15850E+00 -0.17790E+00
  0.49781E-01 -0.47386E-01 -0.13495E+00 -0.17216E+00 -0.15008E+00 -0.92134E-01
 -0.30578E-01  0.16273E-01  0.47879E-01  0.70927E-01  0.89842E-01  0.10561E+00
  0.11846E+00  0.12885E+00  0.13677E+00  0.14175E+00  0.14343E+00  0.14175E+00
  0.13677E+00  0.12885E+00  0.11846E+00  0.10561E+00  0.89842E-01  0.70927E-01
  0.47879E-01  0.16273E-01 -0.30578E-01 -0.92134E-01 -0.15008E+00 -0.17216E+00
  0.32872E-01 -0.37153E-01 -0.98719E-01 -0.12221E+00 -0.10213E+00 -0.56398E-01
 -0.78874E-02  0.31629E-01  0.62527E-01  0.88708E-01  0.11168E+00  0.13121E+00
  0.14743E+00  0.16074E+00  0.17080E+00  0.17694E+00  0.17896E+00  0.17694E+00
  0.17080E+00  0.16074E+00  0.14743E+00  0.13121E+00  0.11168E+00  0.88708E-01
  0.62527E-01  0.31629E-01 -0.78874E-02 -0.56398E-01 -0.10213E+00 -0.12221E+00
  0.13102E-01 -0.25606E-01 -0.57526E-01 -0.66472E-01 -0.50398E-01 -0.19767E-01
  0.13540E-01  0.44420E-01  0.73416E-01  0.10132E+00  0.12708E+00  0.14951E+00
  0.16855E+00  0.18422E+00  0.19579E+00  0.20260E+00  0.20478E+00  0.20260E+00
  0.19579E+00  0.18422E+00  0.16855E+00  0.14951E+00  0.12708E+00  0.10132E+00
  0.73416E-01  0.44420E-01  0.13540E-01 -0.19767E-01 -0.50398E-01 -0.66472E-01
 -0.15754E-02 -0.18423E-01 -0.29740E-01 -0.28894E-01 -0.15839E-01  0.46055E-02
  0.28015E-01  0.53159E-01  0.80260E-01  0.10831E+00  0.13512E+00  0.15909E+00
  0.17974E+00  0.19657E+00  0.20869E+00  0.21563E+00  0.21782E+00  0.21563E+00
  0.20869E+00  0.19657E+00  0.17974E+00  0.15909E+00  0.13512E+00  0.10831E+00
  0.80260E-01  0.53159E-01  0.28015E-01  0.46055E-02 -0.15839E-01 -0.28894E-01
 -0.98086E-02 -0.15993E-01 -0.17392E-01 -0.11625E-01  0.71034E-03  0.17327E-01
  0.36620E-01  0.58521E-01  0.83174E-01  0.10947E+00  0.13534E+00  0.15905E+00
  0.17958E+00  0.19608E+00  0.20768E+00  0.21421E+00  0.21624E+00  0.21421E+00
  0.20768E+00  0.19608E+00  0.17958E+00  0.15905E+00  0.13534E+00  0.10947E+00
  0.83174E-01  0.58521E-01  0.36620E-01  0.17327E-01  0.71034E-03 -0.11625E-01
 -0.14073E-01 -0.16158E-01 -0.14092E-01 -0.62408E-02  0.68688E-02  0.23260E-01
  0.41329E-01  0.60897E-01  0.82407E-01  0.10547E+00  0.12859E+00  0.14997E+00
  0.16810E+00  0.18170E+00  0.19016E+00  0.19412E+00  0.19516E+00  0.19412E+00
  0.19016E+00  0.18170E+00  0.16810E+00  0.14997E+00  0.12859E+00  0.10547E+00
  0.82407E-01  0.60897E-01  0.41329E-01  0.23260E-01  0.68688E-02 -0.62408E-02
 -0.16764E-01 -0.17060E-01 -0.14117E-01 -0.57793E-02  0.78491E-02  0.24572E-01
  0.42200E-01  0.60175E-01  0.78961E-01  0.98449E-01  0.11743E+00  0.13401E+00
  0.14583E+00  0.15066E+00  0.14847E+00  0.14311E+00  0.14038E+00  0.14311E+00
  0.14847E+00  0.15066E+00  0.14583E+00  0.13401E+00  0.11743E+00  0.98449E-01
  0.78961E-01  0.60175E-01  0.42200E-01  0.24572E-01  0.78491E-02 -0.57793E-02
 -0.18866E-01 -0.17934E-01 -0.14996E-01 -0.74389E-02  0.53007E-02  0.21420E-01
  0.38794E-01  0.56474E-01  0.74046E-01  0.90598E-01  0.10467E+00  0.11386E+00
  0.11379E+00  0.99933E-01  0.73772E-01  0.46936E-01  0.35452E-01  0.46936E-01
  0.73772E-01  0.99933E-01  0.11379E+00  0.11386E+00  0.10467E+00  0.90598E-01
  0.74046E-01  0.56474E-01  0.38794E-01  0.21420E-01  0.53007E-02 -0.74389E-02
 -0.20782E-01 -0.18720E-01 -0.15867E-01 -0.97587E-02  0.77469E-03  0.15033E-01
  0.31815E-01  0.49943E-01  0.67493E-01  0.82057E-01  0.91586E-01  0.92467E-01
  0.76518E-01  0.35120E-01 -0.27861E-01 -0.88191E-01 -0.11339E+00 -0.88191E-01
 -0.27861E-01  0.35120E-01  0.76518E-01  0.92467E-01  0.91586E-01  0.82057E-01
  0.67493E-01  0.49943E-01  0.31815E-01  0.15033E-01  0.77469E-03 -0.97587E-02
 -0.22987E-01 -0.19775E-01 -0.16410E-01 -0.11321E-01 -0.33223E-02  0.80363E-02
  0.22988E-01  0.40625E-01  0.57856E-01  0.71138E-01  0.78135E-01  0.73743E-01
  0.44799E-01 -0.22868E-01 -0.12348E+00 -0.21909E+00 -0.25890E+00 -0.21909E+00
 -0.12348E+00 -0.22868E-01  0.44799E-01  0.73743E-01  0.78135E-01  0.71138E-01
  0.57856E-01  0.40625E-01  0.22988E-01  0.80363E-02 -0.33223E-02 -0.11321E-01
 -0.25625E-01 -0.21616E-01 -0.17123E-01 -0.11903E-01 -0.56175E-02  0.26290E-02
  0.14370E-01  0.29532E-01  0.44940E-01  0.57111E-01  0.64484E-01  0.61498E-01
  0.30945E-01 -0.46998E-01 -0.16726E+00 -0.28346E+00 -0.33217E+00 -0.28346E+00
 -0.16726E+00 -0.46998E-01  0.30945E-01  0.61498E-01  0.64484E-01  0.57111E-01
  0.44940E-01  0.29532E-01  0.14370E-01  0.26290E-02 -0.56175E-02 -0.11903E-01
  0.28689E-01  0.26758E-01  0.22255E-01  0.15871E-01  0.93679E-02  0.35201E-02
 -0.30749E-02 -0.11597E-01 -0.20618E-01 -0.28850E-01 -0.38775E-01 -0.51630E-01
 -0.57134E-01 -0.36089E-01  0.17649E-01  0.79178E-01  0.10664E+00  0.79178E-01
  0.17649E-01 -0.36089E-01 -0.57134E-01 -0.51630E-01 -0.38775E-01 -0.28850E-01
 -0.20618E-01 -0.11597E-01 -0.30749E-02  0.35201E-02  0.93679E-02  0.15871E-01
  0.28027E-01  0.24302E-01  0.18985E-01  0.12856E-01  0.68841E-02  0.69836E-03
 -0.77488E-02 -0.19277E-01 -0.31502E-01 -0.42128E-01 -0.51647E-01 -0.56278E-01
 -0.38117E-01  0.26373E-01  0.13635E+00  0.24713E+00  0.29432E+00  0.24713E+00
  0.13635E+00  0.26373E-01 -0.38117E-01 -0.56278E-01 -0.51647E-01 -0.42128E-01
 -0.31502E-01 -0.19277E-01 -0.77488E-02  0.69836E-03  0.68841E-02  0.12856E-01
  0.25900E-01  0.21667E-01  0.16911E-01  0.11380E-01  0.47989E-02 -0.37591E-02
 -0.15862E-01 -0.31229E-01 -0.46427E-01 -0.58112E-01 -0.64640E-01 -0.58171E-01
 -0.16343E-01  0.85049E-01  0.23819E+00  0.38453E+00  0.44557E+00  0.38453E+00
  0.23819E+00  0.85049E-01 -0.16343E-01 -0.58171E-01 -0.64640E-01 -0.58112E-01
 -0.46427E-01 -0.31229E-01 -0.15862E-01 -0.37591E-02  0.47989E-02  0.11380E-01
  0.23528E-01  0.20051E-01  0.16199E-01  0.10322E-01  0.14354E-02 -0.10833E-01
 -0.26720E-01 -0.44922E-01 -0.61769E-01 -0.73720E-01 -0.78106E-01 -0.65874E-01
 -0.15106E-01  0.95683E-01  0.25559E+00  0.40513E+00  0.46695E+00  0.40513E+00
  0.25559E+00  0.95683E-01 -0.15106E-01 -0.65874E-01 -0.78106E-01 -0.73720E-01
 -0.61769E-01 -0.44922E-01 -0.26720E-01 -0.10833E-01  0.14354E-02  0.10322E-01
  0.21777E-01  0.19316E-01  0.15497E-01  0.78887E-02 -0.41497E-02 -0.19674E-01
 -0.37648E-01 -0.56697E-01 -0.74207E-01 -0.87471E-01 -0.93950E-01 -0.85977E-01
 -0.46128E-01  0.42227E-01  0.16990E+00  0.28924E+00  0.33856E+00  0.28924E+00
  0.16990E+00  0.42227E-01 -0.46128E-01 -0.85977E-01 -0.93950E-01 -0.87471E-01
 -0.74207E-01 -0.56697E-01 -0.37648E-01 -0.19674E-01 -0.41497E-02  0.78887E-02
  0.20663E-01  0.18581E-01  0.13605E-01  0.35666E-02 -0.11127E-01 -0.28326E-01
 -0.46510E-01 -0.65224E-01 -0.83687E-01 -0.10041E+00 -0.11330E+00 -0.11693E+00
 -0.99884E-01 -0.51013E-01  0.24635E-01  0.97257E-01  0.12758E+00  0.97257E-01
  0.24635E-01 -0.51013E-01 -0.99884E-01 -0.11693E+00 -0.11330E+00 -0.10041E+00
 -0.83687E-01 -0.65224E-01 -0.46510E-01 -0.28326E-01 -0.11127E-01  0.35666E-02
  0.19655E-01  0.17368E-01  0.10904E-01 -0.95855E-03 -0.16915E-01 -0.34505E-01
 -0.52564E-01 -0.71730E-01 -0.92632E-01 -0.11449E+00 -0.13524E+00 -0.15113E+00
 -0.15579E+00 -0.14294E+00 -0.11412E+00 -0.83383E-01 -0.70083E-01 -0.83383E-01
 -0.11412E+00 -0.14294E+00 -0.15579E+00 -0.15113E+00 -0.13524E+00 -0.11449E+00
 -0.92632E-01 -0.71730E-01 -0.52564E-01 -0.34505E-01 -0.16915E-01 -0.95855E-03
  0.18256E-01  0.15919E-01  0.88284E-02 -0.32683E-02 -0.18954E-01 -0.36529E-01
 -0.55650E-01 -0.77376E-01 -0.10243E+00 -0.12975E+00 -0.15686E+00 -0.18087E+00
 -0.19859E+00 -0.20717E+00 -0.20649E+00 -0.20122E+00 -0.19833E+00 -0.20122E+00
 -0.20649E+00 -0.20717E+00 -0.19859E+00 -0.18087E+00 -0.15686E+00 -0.12975E+00
 -0.10243E+00 -0.77376E-01 -0.55650E-01 -0.36529E-01 -0.18954E-01 -0.32683E-02
  0.16300E-01  0.14933E-01  0.88272E-02 -0.19174E-02 -0.16469E-01 -0.34296E-01
 -0.55747E-01 -0.81523E-01 -0.11132E+00 -0.14308E+00 -0.17389E+00 -0.20143E+00
 -0.22425E+00 -0.24128E+00 -0.25204E+00 -0.25727E+00 -0.25871E+00 -0.25727E+00
 -0.25204E+00 -0.24128E+00 -0.22425E+00 -0.20143E+00 -0.17389E+00 -0.14308E+00
 -0.11132E+00 -0.81523E-01 -0.55747E-01 -0.34296E-01 -0.16469E-01 -0.19174E-02
  0.13875E-01  0.16264E-01  0.13822E-01  0.54646E-02 -0.87205E-02 -0.28246E-01
 -0.52941E-01 -0.82632E-01 -0.11599E+00 -0.15020E+00 -0.18227E+00 -0.21053E+00
 -0.23460E+00 -0.25411E+00 -0.26827E+00 -0.27657E+00 -0.27926E+00 -0.27657E+00
 -0.26827E+00 -0.25411E+00 -0.23460E+00 -0.21053E+00 -0.18227E+00 -0.15020E+00
 -0.11599E+00 -0.82632E-01 -0.52941E-01 -0.28246E-01 -0.87205E-02  0.54647E-02
  0.11183E-01  0.24072E-01  0.30865E-01  0.26144E-01  0.93843E-02 -0.15989E-01
 -0.46266E-01 -0.79495E-01 -0.11435E+00 -0.14864E+00 -0.18002E+00 -0.20757E+00
 -0.23160E+00 -0.25197E+00 -0.26746E+00 -0.27690E+00 -0.28001E+00 -0.27690E+00
 -0.26746E+00 -0.25197E+00 -0.23160E+00 -0.20757E+00 -0.18002E+00 -0.14864E+00
 -0.11435E+00 -0.79495E-01 -0.46266E-01 -0.15989E-01  0.93843E-02  0.26144E-01
  0.85535E-02  0.42986E-01  0.68100E-01  0.69639E-01  0.46276E-01  0.82223E-02
 -0.32765E-01 -0.70980E-01 -0.10607E+00 -0.13848E+00 -0.16766E+00 -0.19340E+00
 -0.21633E+00 -0.23643E+00 -0.25228E+00 -0.26223E+00 -0.26557E+00 -0.26223E+00
 -0.25228E+00 -0.23643E+00 -0.21633E+00 -0.19340E+00 -0.16766E+00 -0.13848E+00
 -0.10607E+00 -0.70980E-01 -0.32765E-01  0.82223E-02  0.46276E-01  0.69639E-01
  0.63992E-02  0.71632E-01  0.12289E+00  0.13384E+00  0.10177E+00  0.45904E-01
 -0.10624E-01 -0.56175E-01 -0.91388E-01 -0.12072E+00 -0.14657E+00 -0.16954E+00
 -0.19013E+00 -0.20835E+00 -0.22298E+00 -0.23236E+00 -0.23555E+00 -0.23236E+00
 -0.22298E+00 -0.20835E+00 -0.19013E+00 -0.16954E+00 -0.14657E+00 -0.12072E+00
 -0.91388E-01 -0.56175E-01 -0.10624E-01  0.45904E-01  0.10177E+00  0.13384E+00
  0.48802E-02  0.96947E-01  0.17132E+00  0.19177E+00  0.15398E+00  0.84079E-01
  0.14742E-01 -0.36677E-01 -0.71027E-01 -0.96264E-01 -0.11778E+00 -0.13707E+00
 -0.15430E+00 -0.16932E+00 -0.18130E+00 -0.18900E+00 -0.19164E+00 -0.18900E+00
 -0.18130E+00 -0.16932E+00 -0.15430E+00 -0.13707E+00 -0.11778E+00 -0.96264E-01