       #
       # Generated by the Wannier90 code http://www.wannier.org
       # On 12Dec2023 at 23:35:55 
       #
CRYSTAL
PRIMVEC
   3.4751459   0.0000000   0.0000000
   0.0000000   3.4751459   0.0000000
   0.0000000   0.0000000   3.4751459
CONVVEC
   3.4751459   0.0000000   0.0000000
   0.0000000   3.4751459   0.0000000
   0.0000000   0.0000000   3.4751459
PRIMCOORD
     4  1
Ni      1.7375729   1.7375729   1.7375729
Ni      1.7375729   0.0000000   0.0000000
Ni      0.0000000   1.7375729   0.0000000
Ni      0.0000000   0.0000000   1.7375729


BEGIN_BLOCK_DATAGRID_3D
3D_field
BEGIN_DATAGRID_3D_UNKNOWN
    30    30    30
   -0.115838   -0.115838   -0.115838
   3.3593077   0.0000000   0.0000000
   0.0000000   3.3593077   0.0000000
   0.0000000   0.0000000   3.3593077
  0.77649E-09  0.47737E-03  0.43017E-03 -0.77943E-03 -0.27727E-02 -0.50775E-02
 -0.81396E-02 -0.12192E-01 -0.16085E-01 -0.19224E-01 -0.23968E-01 -0.32764E-01
 -0.41789E-01 -0.41150E-01 -0.25539E-01 -0.38396E-02  0.63995E-02 -0.38396E-02
 -0.25539E-01 -0.41150E-01 -0.41789E-01 -0.32764E-01 -0.23968E-01 -0.19224E-01
 -0.16085E-01 -0.12192E-01 -0.81396E-02 -0.50775E-02 -0.27727E-02 -0.77943E-03
 -0.47737E-03  0.11395E-08 -0.19322E-03 -0.16760E-02 -0.38957E-02 -0.62708E-02
 -0.93058E-02 -0.13349E-01 -0.17339E-01 -0.20791E-01 -0.26005E-01 -0.34563E-01
 -0.40708E-01 -0.32788E-01 -0.62533E-02  0.25763E-01  0.40275E-01  0.25763E-01
 -0.62533E-02 -0.32788E-01 -0.40708E-01 -0.34563E-01 -0.26005E-01 -0.20791E-01
 -0.17339E-01 -0.13349E-01 -0.93058E-02 -0.62708E-02 -0.38957E-02 -0.16760E-02
 -0.43016E-03  0.19323E-03  0.10831E-08 -0.15833E-02 -0.39142E-02 -0.63846E-02
 -0.95861E-02 -0.14038E-01 -0.18788E-01 -0.23216E-01 -0.29282E-01 -0.38365E-01
 -0.44947E-01 -0.37877E-01 -0.12774E-01  0.17768E-01  0.31645E-01  0.17768E-01
 -0.12774E-01 -0.37877E-01 -0.44947E-01 -0.38365E-01 -0.29282E-01 -0.23216E-01
 -0.18788E-01 -0.14038E-01 -0.95861E-02 -0.63846E-02 -0.39142E-02 -0.15833E-02
  0.77943E-03  0.16760E-02  0.15833E-02  0.60561E-09 -0.24564E-02 -0.52262E-02
 -0.89380E-02 -0.14246E-01 -0.20301E-01 -0.26150E-01 -0.33152E-01 -0.43023E-01
 -0.52431E-01 -0.52862E-01 -0.39735E-01 -0.20919E-01 -0.11977E-01 -0.20919E-01
 -0.39735E-01 -0.52862E-01 -0.52431E-01 -0.43023E-01 -0.33152E-01 -0.26150E-01
 -0.20301E-01 -0.14246E-01 -0.89380E-02 -0.52262E-02 -0.24564E-02 -0.26924E-08
  0.27727E-02  0.38957E-02  0.39142E-02  0.24564E-02  0.57810E-09 -0.30131E-02
 -0.71701E-02 -0.13221E-01 -0.20540E-01 -0.27891E-01 -0.35756E-01 -0.45938E-01
 -0.57714E-01 -0.66234E-01 -0.67198E-01 -0.62720E-01 -0.59906E-01 -0.62720E-01
 -0.67198E-01 -0.66234E-01 -0.57714E-01 -0.45938E-01 -0.35756E-01 -0.27891E-01
 -0.20540E-01 -0.13221E-01 -0.71701E-02 -0.30131E-02 -0.22302E-08  0.24564E-02
  0.50775E-02  0.62708E-02  0.63846E-02  0.52262E-02  0.30131E-02  0.25563E-09
 -0.42514E-02 -0.10484E-01 -0.18472E-01 -0.27032E-01 -0.35757E-01 -0.45782E-01
 -0.57870E-01 -0.70314E-01 -0.79950E-01 -0.85147E-01 -0.86619E-01 -0.85147E-01
 -0.79950E-01 -0.70314E-01 -0.57870E-01 -0.45782E-01 -0.35757E-01 -0.27032E-01
 -0.18472E-01 -0.10484E-01 -0.42514E-02 -0.18619E-08  0.30131E-02  0.52262E-02
  0.81396E-02  0.93058E-02  0.95861E-02  0.89380E-02  0.71701E-02  0.42514E-02
 -0.61315E-09 -0.60718E-02 -0.14089E-01 -0.23318E-01 -0.32906E-01 -0.42941E-01
 -0.54138E-01 -0.66362E-01 -0.77858E-01 -0.86077E-01 -0.89049E-01 -0.86077E-01
 -0.77858E-01 -0.66362E-01 -0.54138E-01 -0.42941E-01 -0.32906E-01 -0.23318E-01
 -0.14089E-01 -0.60718E-02 -0.13714E-08  0.42514E-02  0.71701E-02  0.89380E-02
  0.12192E-01  0.13349E-01  0.14038E-01  0.14246E-01  0.13221E-01  0.10484E-01
  0.60718E-02 -0.98034E-09 -0.78460E-02 -0.17233E-01 -0.27470E-01 -0.37990E-01
 -0.48719E-01 -0.59559E-01 -0.69558E-01 -0.76851E-01 -0.79546E-01 -0.76851E-01
 -0.69558E-01 -0.59559E-01 -0.48719E-01 -0.37990E-01 -0.27470E-01 -0.17233E-01
 -0.78460E-02 -0.91387E-09  0.60718E-02  0.10484E-01  0.13221E-01  0.14246E-01
  0.16085E-01  0.17339E-01  0.18788E-01  0.20301E-01  0.20540E-01  0.18472E-01
  0.14089E-01  0.78460E-02 -0.87494E-09 -0.93281E-02 -0.19813E-01 -0.30911E-01
 -0.42015E-01 -0.52402E-01 -0.61085E-01 -0.66921E-01 -0.68984E-01 -0.66921E-01
 -0.61085E-01 -0.52402E-01 -0.42015E-01 -0.30911E-01 -0.19813E-01 -0.93281E-02
 -0.48047E-09  0.78460E-02  0.14089E-01  0.18472E-01  0.20540E-01  0.20301E-01
  0.19224E-01  0.20791E-01  0.23216E-01  0.26150E-01  0.27891E-01  0.27032E-01
  0.23318E-01  0.17233E-01  0.93281E-02 -0.72716E-09 -0.10465E-01 -0.21771E-01
 -0.33332E-01 -0.44022E-01 -0.52469E-01 -0.57711E-01 -0.59457E-01 -0.57711E-01
 -0.52469E-01 -0.44022E-01 -0.33332E-01 -0.21771E-01 -0.10465E-01  0.15433E-09
  0.93281E-02  0.17233E-01  0.23318E-01  0.27032E-01  0.27891E-01  0.26150E-01
  0.23968E-01  0.26005E-01  0.29282E-01  0.33152E-01  0.35756E-01  0.35757E-01
  0.32906E-01  0.27470E-01  0.19813E-01  0.10465E-01 -0.29021E-09 -0.11214E-01
 -0.22743E-01 -0.33520E-01 -0.42026E-01 -0.47211E-01 -0.48903E-01 -0.47211E-01
 -0.42026E-01 -0.33520E-01 -0.22743E-01 -0.11214E-01  0.84066E-09  0.10465E-01
  0.19813E-01  0.27470E-01  0.32906E-01  0.35757E-01  0.35756E-01  0.33152E-01
  0.32764E-01  0.34563E-01  0.38365E-01  0.43023E-01  0.45938E-01  0.45782E-01
  0.42941E-01  0.37990E-01  0.30911E-01  0.21771E-01  0.11214E-01  0.30790E-09
 -0.11274E-01 -0.21733E-01 -0.30073E-01 -0.35245E-01 -0.36957E-01 -0.35245E-01
 -0.30073E-01 -0.21733E-01 -0.11274E-01  0.13473E-08  0.11214E-01  0.21771E-01
  0.30911E-01  0.37990E-01  0.42941E-01  0.45782E-01  0.45938E-01  0.43023E-01
  0.41789E-01  0.40708E-01  0.44947E-01  0.52431E-01  0.57714E-01  0.57870E-01
  0.54138E-01  0.48719E-01  0.42015E-01  0.33332E-01  0.22743E-01  0.11274E-01
  0.98455E-09 -0.10198E-01 -0.18344E-01 -0.23531E-01 -0.25292E-01 -0.23531E-01
 -0.18344E-01 -0.10198E-01  0.18015E-08  0.11274E-01  0.22743E-01  0.33332E-01
  0.42015E-01  0.48719E-01  0.54138E-01  0.57870E-01  0.57714E-01  0.52431E-01
  0.41150E-01  0.32788E-01  0.37877E-01  0.52862E-01  0.66234E-01  0.70314E-01
  0.66362E-01  0.59559E-01  0.52402E-01  0.44022E-01  0.33520E-01  0.21733E-01
  0.10198E-01  0.17248E-08 -0.81250E-02 -0.13429E-01 -0.15278E-01 -0.13429E-01
 -0.81250E-02  0.23032E-08  0.10198E-01  0.21733E-01  0.33520E-01  0.44022E-01
  0.52402E-01  0.59559E-01  0.66362E-01  0.70314E-01  0.66234E-01  0.52862E-01
  0.25539E-01  0.62533E-02  0.12774E-01  0.39735E-01  0.67198E-01  0.79950E-01
  0.77858E-01  0.69558E-01  0.61085E-01  0.52469E-01  0.42026E-01  0.30073E-01
  0.18344E-01  0.81250E-02  0.18112E-08 -0.54113E-02 -0.73379E-02 -0.54113E-02
  0.26235E-08  0.81250E-02  0.18344E-01  0.30073E-01  0.42026E-01  0.52469E-01
  0.61085E-01  0.69558E-01  0.77858E-01  0.79950E-01  0.67198E-01  0.39735E-01
  0.38396E-02 -0.25763E-01 -0.17768E-01  0.20919E-01  0.62719E-01  0.85147E-01
  0.86077E-01  0.76851E-01  0.66921E-01  0.57711E-01  0.47211E-01  0.35245E-01
  0.23531E-01  0.13429E-01  0.54113E-02  0.15760E-08 -0.19535E-02  0.25435E-08
  0.54113E-02  0.13429E-01  0.23531E-01  0.35245E-01  0.47211E-01  0.57711E-01
  0.66921E-01  0.76851E-01  0.86077E-01  0.85147E-01  0.62720E-01  0.20919E-01
 -0.63995E-02 -0.40275E-01 -0.31645E-01  0.11977E-01  0.59906E-01  0.86619E-01
  0.89049E-01  0.79546E-01  0.68984E-01  0.59457E-01  0.48903E-01  0.36957E-01
  0.25292E-01  0.15278E-01  0.73379E-02  0.19535E-02  0.22980E-08  0.19535E-02
  0.73379E-02  0.15278E-01  0.25292E-01  0.36957E-01  0.48903E-01  0.59457E-01
  0.68984E-01  0.79546E-01  0.89049E-01  0.86619E-01  0.59906E-01  0.11977E-01
  0.38396E-02 -0.25763E-01 -0.17768E-01  0.20919E-01  0.62719E-01  0.85147E-01
  0.86077E-01  0.76851E-01  0.66921E-01  0.57711E-01  0.47211E-01  0.35245E-01
  0.23531E-01  0.13429E-01  0.54113E-02  0.23903E-08 -0.19535E-02  0.33841E-08
  0.54113E-02  0.13429E-01  0.23531E-01  0.35245E-01  0.47211E-01  0.57711E-01
  0.66921E-01  0.76851E-01  0.86077E-01  0.85147E-01  0.62719E-01  0.20919E-01
  0.25539E-01  0.62533E-02  0.12774E-01  0.39735E-01  0.67198E-01  0.79950E-01
  0.77858E-01  0.69558E-01  0.61085E-01  0.52469E-01  0.42026E-01  0.30073E-01
  0.18344E-01  0.81250E-02  0.27719E-08 -0.54113E-02 -0.73379E-02 -0.54113E-02
  0.37412E-08  0.81250E-02  0.18344E-01  0.30073E-01  0.42026E-01  0.52469E-01
  0.61085E-01  0.69558E-01  0.77858E-01  0.79950E-01  0.67198E-01  0.39735E-01
  0.41150E-01  0.32788E-01  0.37877E-01  0.52862E-01  0.66234E-01  0.70314E-01
  0.66362E-01  0.59559E-01  0.52402E-01  0.44022E-01  0.33520E-01  0.21733E-01
  0.10198E-01  0.28665E-08 -0.81250E-02 -0.13429E-01 -0.15278E-01 -0.13429E-01
 -0.81250E-02  0.40112E-08  0.10198E-01  0.21733E-01  0.33520E-01  0.44022E-01
  0.52402E-01  0.59559E-01  0.66362E-01  0.70314E-01  0.66234E-01  0.52862E-01
  0.41789E-01  0.40708E-01  0.44947E-01  0.52431E-01  0.57714E-01  0.57870E-01
  0.54138E-01  0.48719E-01  0.42015E-01  0.33332E-01  0.22743E-01  0.11274E-01
  0.26811E-08 -0.10198E-01 -0.18344E-01 -0.23531E-01 -0.25292E-01 -0.23531E-01
 -0.18344E-01 -0.10198E-01  0.43543E-08  0.11274E-01  0.22743E-01  0.33332E-01
  0.42015E-01  0.48719E-01  0.54138E-01  0.57870E-01  0.57714E-01  0.52431E-01
  0.32764E-01  0.34563E-01  0.38365E-01  0.43023E-01  0.45938E-01  0.45782E-01
  0.42941E-01  0.37990E-01  0.30911E-01  0.21771E-01  0.11214E-01  0.26312E-08
 -0.11274E-01 -0.21733E-01 -0.30073E-01 -0.35245E-01 -0.36957E-01 -0.35245E-01
 -0.30073E-01 -0.21733E-01 -0.11274E-01  0.39602E-08  0.11214E-01  0.21771E-01
  0.30911E-01  0.37990E-01  0.42941E-01  0.45782E-01  0.45938E-01  0.43023E-01
  0.23968E-01  0.26005E-01  0.29282E-01  0.33152E-01  0.35756E-01  0.35757E-01
  0.32906E-01  0.27470E-01  0.19813E-01  0.10465E-01  0.23728E-08 -0.11214E-01
 -0.22743E-01 -0.33520E-01 -0.42026E-01 -0.47211E-01 -0.48903E-01 -0.47211E-01
 -0.42026E-01 -0.33520E-01 -0.22743E-01 -0.11214E-01  0.32928E-08  0.10465E-01
  0.19813E-01  0.27470E-01  0.32906E-01  0.35757E-01  0.35756E-01  0.33152E-01
  0.19224E-01  0.20791E-01  0.23216E-01  0.26150E-01  0.27891E-01  0.27032E-01
  0.23318E-01  0.17233E-01  0.93281E-02  0.14982E-08 -0.10465E-01 -0.21771E-01
 -0.33332E-01 -0.44022E-01 -0.52469E-01 -0.57711E-01 -0.59457E-01 -0.57711E-01
 -0.52469E-01 -0.44022E-01 -0.33332E-01 -0.21771E-01 -0.10465E-01  0.30574E-08
  0.93281E-02  0.17233E-01  0.23318E-01  0.27032E-01  0.27891E-01  0.26150E-01
  0.16085E-01  0.17339E-01  0.18788E-01  0.20301E-01  0.20540E-01  0.18472E-01
  0.14089E-01  0.78460E-02  0.48638E-09 -0.93281E-02 -0.19813E-01 -0.30911E-01
 -0.42015E-01 -0.52402E-01 -0.61085E-01 -0.66921E-01 -0.68984E-01 -0.66921E-01
 -0.61085E-01 -0.52402E-01 -0.42015E-01 -0.30911E-01 -0.19813E-01 -0.93281E-02
  0.27667E-08  0.78461E-02  0.14089E-01  0.18472E-01  0.20540E-01  0.20301E-01
  0.12192E-01  0.13349E-01  0.14038E-01  0.14246E-01  0.13221E-01  0.10484E-01
  0.60718E-02 -0.35382E-09 -0.78460E-02 -0.17233E-01 -0.27470E-01 -0.37990E-01
 -0.48719E-01 -0.59559E-01 -0.69558E-01 -0.76851E-01 -0.79546E-01 -0.76851E-01
 -0.69558E-01 -0.59559E-01 -0.48719E-01 -0.37990E-01 -0.27470E-01 -0.17233E-01
 -0.78460E-02  0.23318E-08  0.60718E-02  0.10484E-01  0.13221E-01  0.14246E-01
  0.81396E-02  0.93058E-02  0.95861E-02  0.89380E-02  0.71701E-02  0.42514E-02
 -0.10258E-08 -0.60718E-02 -0.14089E-01 -0.23318E-01 -0.32906E-01 -0.42941E-01
 -0.54138E-01 -0.66362E-01 -0.77858E-01 -0.86077E-01 -0.89049E-01 -0.86077E-01
 -0.77858E-01 -0.66362E-01 -0.54138E-01 -0.42941E-01 -0.32906E-01 -0.23318E-01
 -0.14089E-01 -0.60718E-02  0.22864E-08  0.42514E-02  0.71701E-02  0.89380E-02
  0.50775E-02  0.62708E-02  0.63846E-02  0.52262E-02  0.30131E-02 -0.10649E-08
 -0.42514E-02 -0.10484E-01 -0.18472E-01 -0.27032E-01 -0.35757E-01 -0.45782E-01
 -0.57870E-01 -0.70314E-01 -0.79950E-01 -0.85147E-01 -0.86619E-01 -0.85147E-01
 -0.79950E-01 -0.70314E-01 -0.57870E-01 -0.45782E-01 -0.35757E-01 -0.27032E-01
 -0.18472E-01 -0.10484E-01 -0.42514E-02  0.23152E-08  0.30131E-02  0.52262E-02
  0.27727E-02  0.38957E-02  0.39142E-02  0.24564E-02 -0.84457E-09 -0.30131E-02
 -0.71701E-02 -0.13221E-01 -0.20540E-01 -0.27891E-01 -0.35756E-01 -0.45938E-01
 -0.57714E-01 -0.66234E-01 -0.67198E-01 -0.62720E-01 -0.59906E-01 -0.62720E-01
 -0.67198E-01 -0.66234E-01 -0.57714E-01 -0.45938E-01 -0.35756E-01 -0.27891E-01
 -0.20540E-01 -0.13221E-01 -0.71701E-02 -0.30131E-02  0.20314E-08  0.24564E-02
  0.77943E-03  0.16760E-02  0.15833E-02 -0.14255E-08 -0.24564E-02 -0.52262E-02
 -0.89380E-02 -0.14246E-01 -0.20301E-01 -0.26150E-01 -0.33152E-01 -0.43023E-01
 -0.52431E-01 -0.52862E-01 -0.39735E-01 -0.20919E-01 -0.11977E-01 -0.20919E-01
 -0.39735E-01 -0.52862E-01 -0.52431E-01 -0.43023E-01 -0.33152E-01 -0.26150E-01
 -0.20301E-01 -0.14246E-01 -0.89380E-02 -0.52262E-02 -0.24564E-02  0.21750E-08
  0.84584E-09  0.60811E-03  0.39868E-03 -0.12508E-02 -0.36864E-02 -0.62368E-02
 -0.94026E-02 -0.13559E-01 -0.17636E-01 -0.21181E-01 -0.26701E-01 -0.36145E-01
 -0.44040E-01 -0.38633E-01 -0.14812E-01  0.15105E-01  0.28827E-01  0.15105E-01
 -0.14812E-01 -0.38633E-01 -0.44040E-01 -0.36145E-01 -0.26701E-01 -0.21181E-01
 -0.17636E-01 -0.13559E-01 -0.94026E-02 -0.62368E-02 -0.36864E-02 -0.12508E-02
 -0.60810E-03  0.12134E-08 -0.35783E-03 -0.21672E-02 -0.46201E-02 -0.71041E-02
 -0.10347E-01 -0.14880E-01 -0.19633E-01 -0.24020E-01 -0.29887E-01 -0.37158E-01
 -0.37042E-01 -0.15556E-01  0.30030E-01  0.79464E-01  0.10109E+00  0.79464E-01
  0.30030E-01 -0.15556E-01 -0.37042E-01 -0.37158E-01 -0.29887E-01 -0.24020E-01
 -0.19633E-01 -0.14880E-01 -0.10347E-01 -0.71041E-02 -0.46201E-02 -0.21672E-02
 -0.39868E-03  0.35784E-03  0.10024E-08 -0.18382E-02 -0.43562E-02 -0.70866E-02
 -0.10912E-01 -0.16430E-01 -0.22473E-01 -0.28070E-01 -0.34340E-01 -0.40371E-01
 -0.36909E-01 -0.10331E-01  0.40844E-01  0.94640E-01  0.11792E+00  0.94640E-01
  0.40844E-01 -0.10331E-01 -0.36909E-01 -0.40371E-01 -0.34340E-01 -0.28070E-01
 -0.22473E-01 -0.16430E-01 -0.10912E-01 -0.70866E-02 -0.43562E-02 -0.18382E-02
  0.12508E-02  0.21672E-02  0.18382E-02  0.28707E-09 -0.27000E-02 -0.59524E-02
 -0.10639E-01 -0.17333E-01 -0.24805E-01 -0.31683E-01 -0.38556E-01 -0.45027E-01
 -0.44222E-01 -0.25245E-01  0.13652E-01  0.55408E-01  0.73619E-01  0.55408E-01
  0.13652E-01 -0.25245E-01 -0.44222E-01 -0.45027E-01 -0.38556E-01 -0.31683E-01
 -0.24805E-01 -0.17333E-01 -0.10639E-01 -0.59524E-02 -0.27000E-02 -0.31024E-08
  0.36864E-02  0.46201E-02  0.43562E-02  0.27000E-02  0.22562E-09 -0.35939E-02
 -0.88230E-02 -0.16238E-01 -0.24796E-01 -0.32953E-01 -0.40816E-01 -0.48847E-01
 -0.53666E-01 -0.48315E-01 -0.30277E-01 -0.85644E-02  0.12729E-02 -0.85644E-02
 -0.30277E-01 -0.48315E-01 -0.53666E-01 -0.48847E-01 -0.40816E-01 -0.32953E-01
 -0.24796E-01 -0.16238E-01 -0.88230E-02 -0.35939E-02 -0.27057E-08  0.27000E-02
  0.62368E-02  0.71041E-02  0.70866E-02  0.59524E-02  0.35939E-02  0.18032E-09
 -0.52871E-02 -0.12766E-01 -0.21865E-01 -0.31244E-01 -0.40504E-01 -0.50292E-01
 -0.59837E-01 -0.65773E-01 -0.65437E-01 -0.61066E-01 -0.58543E-01 -0.61066E-01
 -0.65437E-01 -0.65773E-01 -0.59837E-01 -0.50292E-01 -0.40504E-01 -0.31244E-01
 -0.21865E-01 -0.12766E-01 -0.52871E-02 -0.21806E-08  0.35939E-02  0.59524E-02
  0.94026E-02  0.10347E-01  0.10912E-01  0.10639E-01  0.88230E-02  0.52871E-02
 -0.45058E-09 -0.73044E-02 -0.16557E-01 -0.26958E-01 -0.37786E-01 -0.49139E-01
 -0.61105E-01 -0.72458E-01 -0.81117E-01 -0.85966E-01 -0.87419E-01 -0.85966E-01
 -0.81117E-01 -0.72458E-01 -0.61105E-01 -0.49139E-01 -0.37786E-01 -0.26958E-01
 -0.16557E-01 -0.73044E-02 -0.14406E-08  0.52871E-02  0.88230E-02  0.10639E-01
  0.13559E-01  0.14880E-01  0.16430E-01  0.17333E-01  0.16238E-01  0.12766E-01
  0.73044E-02 -0.82080E-09 -0.93085E-02 -0.20394E-01 -0.32566E-01 -0.45291E-01
 -0.58317E-01 -0.70979E-01 -0.81804E-01 -0.89076E-01 -0.91625E-01 -0.89076E-01
 -0.81804E-01 -0.70979E-01 -0.58317E-01 -0.45291E-01 -0.32566E-01 -0.20394E-01
 -0.93085E-02 -0.82550E-09  0.73044E-02  0.12766E-01  0.16238E-01  0.17333E-01
  0.17636E-01  0.19633E-01  0.22473E-01  0.24805E-01  0.24796E-01  0.21865E-01
  0.16557E-01  0.93085E-02 -0.77740E-09 -0.11405E-01 -0.24394E-01 -0.38178E-01
 -0.51990E-01 -0.64863E-01 -0.75459E-01 -0.82414E-01 -0.84828E-01 -0.82414E-01
 -0.75459E-01 -0.64863E-01 -0.51990E-01 -0.38178E-01 -0.24394E-01 -0.11405E-01
 -0.29726E-09  0.93085E-02  0.16557E-01  0.21865E-01  0.24796E-01  0.24805E-01
  0.21181E-01  0.24020E-01  0.28070E-01  0.31683E-01  0.32953E-01  0.31244E-01
  0.26958E-01  0.20394E-01  0.11405E-01 -0.61892E-09 -0.13278E-01 -0.27595E-01
 -0.41991E-01 -0.55181E-01 -0.65646E-01 -0.72216E-01 -0.74427E-01 -0.72216E-01
 -0.65646E-01 -0.55181E-01 -0.41991E-01 -0.27595E-01 -0.13278E-01  0.45167E-09
  0.11405E-01  0.20394E-01  0.26958E-01  0.31244E-01  0.32953E-01  0.31683E-01
  0.26701E-01  0.29887E-01  0.34340E-01  0.38556E-01  0.40816E-01  0.40504E-01
  0.37786E-01  0.32566E-01  0.24394E-01  0.13278E-01 -0.11777E-09 -0.14399E-01
 -0.28907E-01 -0.42229E-01 -0.52783E-01 -0.59364E-01 -0.61562E-01 -0.59364E-01
 -0.52783E-01 -0.42229E-01 -0.28907E-01 -0.14399E-01  0.12114E-08  0.13278E-01
  0.24394E-01  0.32566E-01  0.37786E-01  0.40504E-01  0.40816E-01  0.38556E-01
  0.36145E-01  0.37158E-01  0.40371E-01  0.45027E-01  0.48847E-01  0.50292E-01
  0.49139E-01  0.45291E-01  0.38178E-01  0.27595E-01  0.14399E-01  0.51769E-09
 -0.14346E-01 -0.27441E-01 -0.37908E-01 -0.44555E-01 -0.46808E-01 -0.44555E-01
 -0.37908E-01 -0.27441E-01 -0.14346E-01  0.17508E-08  0.14399E-01  0.27595E-01
  0.38178E-01  0.45291E-01  0.49139E-01  0.50292E-01  0.48847E-01  0.45027E-01
  0.44040E-01  0.37042E-01  0.36909E-01  0.44222E-01  0.53666E-01  0.59837E-01
  0.61105E-01  0.58317E-01  0.51990E-01  0.41991E-01  0.28907E-01  0.14346E-01
  0.11489E-08 -0.12869E-01 -0.23168E-01 -0.29845E-01 -0.32155E-01 -0.29845E-01
 -0.23168E-01 -0.12869E-01  0.22601E-08  0.14346E-01  0.28907E-01  0.41991E-01
  0.51990E-01  0.58317E-01  0.61105E-01  0.59837E-01  0.53666E-01  0.44222E-01
  0.38633E-01  0.15556E-01  0.10331E-01  0.25245E-01  0.48315E-01  0.65773E-01
  0.72458E-01  0.70979E-01  0.64863E-01  0.55181E-01  0.42229E-01  0.27441E-01
  0.12869E-01  0.18760E-08 -0.10255E-01 -0.17007E-01 -0.19384E-01 -0.17007E-01
 -0.10255E-01  0.27233E-08  0.12869E-01  0.27441E-01  0.42229E-01  0.55181E-01
  0.64863E-01  0.70979E-01  0.72458E-01  0.65773E-01  0.48315E-01  0.25245E-01
  0.14812E-01 -0.30030E-01 -0.40844E-01 -0.13652E-01  0.30277E-01  0.65437E-01
  0.81117E-01  0.81804E-01  0.75459E-01  0.65646E-01  0.52783E-01  0.37908E-01
  0.23168E-01  0.10255E-01  0.20090E-08 -0.68265E-02 -0.92613E-02 -0.68265E-02
  0.28403E-08  0.10255E-01  0.23168E-01  0.37908E-01  0.52783E-01  0.65646E-01
  0.75459E-01  0.81804E-01  0.81117E-01  0.65437E-01  0.30277E-01 -0.13652E-01
 -0.15105E-01 -0.79464E-01 -0.94640E-01 -0.55408E-01  0.85644E-02  0.61066E-01
  0.85966E-01  0.89076E-01  0.82414E-01  0.72216E-01  0.59364E-01  0.44555E-01
  0.29845E-01  0.17007E-01  0.68265E-02  0.16899E-08 -0.24550E-02  0.25856E-08
  0.68265E-02  0.17007E-01  0.29845E-01  0.44555E-01  0.59364E-01  0.72216E-01
  0.82414E-01  0.89076E-01  0.85966E-01  0.61066E-01  0.85644E-02 -0.55408E-01
 -0.28827E-01 -0.10109E+00 -0.11792E+00 -0.73619E-01 -0.12729E-02  0.58543E-01
  0.87419E-01  0.91625E-01  0.84828E-01  0.74427E-01  0.61562E-01  0.46808E-01
  0.32155E-01  0.19384E-01  0.92613E-02  0.24550E-02  0.22704E-08  0.24551E-02
  0.92613E-02  0.19384E-01  0.32155E-01  0.46808E-01  0.61562E-01  0.74427E-01
  0.84828E-01  0.91625E-01  0.87419E-01  0.58543E-01 -0.12729E-02 -0.73619E-01
 -0.15105E-01 -0.79464E-01 -0.94640E-01 -0.55408E-01  0.85644E-02  0.61066E-01
  0.85966E-01  0.89076E-01  0.82414E-01  0.72216E-01  0.59364E-01  0.44555E-01
  0.29845E-01  0.17007E-01  0.68265E-02  0.22734E-08 -0.24550E-02  0.34024E-08
  0.68265E-02  0.17007E-01  0.29845E-01  0.44555E-01  0.59364E-01  0.72216E-01
  0.82414E-01  0.89076E-01  0.85966E-01  0.61066E-01  0.85644E-02 -0.55408E-01
  0.14812E-01 -0.30030E-01 -0.40844E-01 -0.13652E-01  0.30277E-01  0.65437E-01
  0.81117E-01  0.81804E-01  0.75459E-01  0.65646E-01  0.52783E-01  0.37908E-01
  0.23168E-01  0.10255E-01  0.26001E-08 -0.68265E-02 -0.92613E-02 -0.68265E-02
  0.38486E-08  0.10255E-01  0.23168E-01  0.37908E-01  0.52783E-01  0.65646E-01
  0.75459E-01  0.81804E-01  0.81117E-01  0.65437E-01  0.30277E-01 -0.13652E-01
  0.38633E-01  0.15556E-01  0.10331E-01  0.25245E-01  0.48315E-01  0.65773E-01
  0.72458E-01  0.70979E-01  0.64863E-01  0.55181E-01  0.42229E-01  0.27441E-01
  0.12869E-01  0.27216E-08 -0.10255E-01 -0.17007E-01 -0.19384E-01 -0.17007E-01
 -0.10255E-01  0.40567E-08  0.12869E-01  0.27441E-01  0.42229E-01  0.55181E-01
  0.64863E-01  0.70979E-01  0.72458E-01  0.65773E-01  0.48315E-01  0.25245E-01
  0.44040E-01  0.37042E-01  0.36909E-01  0.44222E-01  0.53666E-01  0.59837E-01
  0.61105E-01  0.58317E-01  0.51990E-01  0.41991E-01  0.28907E-01  0.14346E-01
  0.24535E-08 -0.12869E-01 -0.23168E-01 -0.29845E-01 -0.32155E-01 -0.29845E-01
 -0.23168E-01 -0.12869E-01  0.43913E-08  0.14346E-01  0.28907E-01  0.41991E-01
  0.51990E-01  0.58317E-01  0.61105E-01  0.59837E-01  0.53666E-01  0.44222E-01
  0.36145E-01  0.37158E-01  0.40371E-01  0.45027E-01  0.48847E-01  0.50292E-01
  0.49139E-01  0.45291E-01  0.38178E-01  0.27595E-01  0.14399E-01  0.22349E-08
 -0.14346E-01 -0.27441E-01 -0.37908E-01 -0.44555E-01 -0.46808E-01 -0.44555E-01
 -0.37908E-01 -0.27441E-01 -0.14346E-01  0.41715E-08  0.14399E-01  0.27595E-01
  0.38178E-01  0.45291E-01  0.49139E-01  0.50292E-01  0.48847E-01  0.45027E-01
  0.26701E-01  0.29887E-01  0.34340E-01  0.38556E-01  0.40816E-01  0.40504E-01
  0.37786E-01  0.32566E-01  0.24394E-01  0.13278E-01  0.19621E-08 -0.14399E-01
 -0.28907E-01 -0.42229E-01 -0.52783E-01 -0.59364E-01 -0.61562E-01 -0.59364E-01
 -0.52783E-01 -0.42229E-01 -0.28907E-01 -0.14399E-01  0.36491E-08  0.13278E-01
  0.24394E-01  0.32566E-01  0.37786E-01  0.40504E-01  0.40816E-01  0.38556E-01
  0.21181E-01  0.24020E-01  0.28070E-01  0.31683E-01  0.32953E-01  0.31244E-01
  0.26958E-01  0.20394E-01  0.11405E-01  0.11396E-08 -0.13278E-01 -0.27595E-01
 -0.41991E-01 -0.55181E-01 -0.65646E-01 -0.72216E-01 -0.74427E-01 -0.72216E-01
 -0.65646E-01 -0.55181E-01 -0.41991E-01 -0.27595E-01 -0.13278E-01  0.34039E-08
  0.11405E-01  0.20394E-01  0.26958E-01  0.31244E-01  0.32953E-01  0.31683E-01
  0.17636E-01  0.19633E-01  0.22473E-01  0.24805E-01  0.24796E-01  0.21865E-01
  0.16557E-01  0.93085E-02  0.80882E-10 -0.11405E-01 -0.24394E-01 -0.38178E-01
 -0.51990E-01 -0.64863E-01 -0.75459E-01 -0.82414E-01 -0.84828E-01 -0.82414E-01
 -0.75459E-01 -0.64863E-01 -0.51990E-01 -0.38178E-01 -0.24394E-01 -0.11405E-01
  0.30596E-08  0.93085E-02  0.16557E-01  0.21865E-01  0.24796E-01  0.24805E-01
  0.13559E-01  0.14880E-01  0.16430E-01  0.17333E-01  0.16238E-01  0.12766E-01
  0.73044E-02 -0.72852E-09 -0.93085E-02 -0.20394E-01 -0.32566E-01 -0.45291E-01
 -0.58317E-01 -0.70979E-01 -0.81804E-01 -0.89076E-01 -0.91625E-01 -0.89076E-01
 -0.81804E-01 -0.70979E-01 -0.58317E-01 -0.45291E-01 -0.32566E-01 -0.20394E-01
 -0.93085E-02  0.25904E-08  0.73044E-02  0.12766E-01  0.16238E-01  0.17333E-01
  0.94026E-02  0.10347E-01  0.10912E-01  0.10639E-01  0.88230E-02  0.52871E-02
 -0.12334E-08 -0.73044E-02 -0.16557E-01 -0.26958E-01 -0.37786E-01 -0.49139E-01
 -0.61105E-01 -0.72458E-01 -0.81117E-01 -0.85966E-01 -0.87419E-01 -0.85966E-01
 -0.81117E-01 -0.72458E-01 -0.61105E-01 -0.49139E-01 -0.37786E-01 -0.26958E-01
 -0.16557E-01 -0.73044E-02  0.24469E-08  0.52871E-02  0.88230E-02  0.10639E-01
  0.62368E-02  0.71041E-02  0.70866E-02  0.59524E-02  0.35939E-02 -0.12679E-08
 -0.52871E-02 -0.12766E-01 -0.21865E-01 -0.31244E-01 -0.40504E-01 -0.50292E-01
 -0.59837E-01 -0.65773E-01 -0.65437E-01 -0.61066E-01 -0.58543E-01 -0.61066E-01
 -0.65437E-01 -0.65773E-01 -0.59837E-01 -0.50292E-01 -0.40504E-01 -0.31244E-01
 -0.21865E-01 -0.12766E-01 -0.52871E-02  0.23059E-08  0.35939E-02  0.59524E-02
  0.36864E-02  0.46201E-02  0.43562E-02  0.27000E-02 -0.13274E-08 -0.35939E-02
 -0.88230E-02 -0.16238E-01 -0.24796E-01 -0.32953E-01 -0.40816E-01 -0.48847E-01
 -0.53666E-01 -0.48315E-01 -0.30277E-01 -0.85644E-02  0.12729E-02 -0.85644E-02
 -0.30277E-01 -0.48315E-01 -0.53666E-01 -0.48847E-01 -0.40816E-01 -0.32953E-01
 -0.24796E-01 -0.16238E-01 -0.88230E-02 -0.35939E-02  0.19247E-08  0.27000E-02
  0.12508E-02  0.21672E-02  0.18382E-02 -0.21866E-08 -0.27000E-02 -0.59524E-02
 -0.10639E-01 -0.17333E-01 -0.24805E-01 -0.31683E-01 -0.38556E-01 -0.45027E-01
 -0.44222E-01 -0.25245E-01  0.13652E-01  0.55408E-01  0.73619E-01  0.55408E-01
  0.13652E-01 -0.25245E-01 -0.44222E-01 -0.45027E-01 -0.38556E-01 -0.31683E-01
 -0.24805E-01 -0.17333E-01 -0.10639E-01 -0.59524E-02 -0.27000E-02  0.20256E-08
  0.12234E-08  0.59191E-03  0.11656E-03 -0.18440E-02 -0.44238E-02 -0.69560E-02
 -0.10133E-01 -0.14533E-01 -0.19102E-01 -0.22925E-01 -0.27197E-01 -0.31702E-01
 -0.28895E-01 -0.68983E-02  0.36132E-01  0.81750E-01  0.10156E+00  0.81750E-01
  0.36132E-01 -0.68983E-02 -0.28895E-01 -0.31702E-01 -0.27197E-01 -0.22925E-01
 -0.19102E-01 -0.14533E-01 -0.10133E-01 -0.69560E-02 -0.44238E-02 -0.18440E-02
 -0.59190E-03  0.12814E-08 -0.56878E-03 -0.25491E-02 -0.50801E-02 -0.77622E-02
 -0.11570E-01 -0.17080E-01 -0.22976E-01 -0.27908E-01 -0.31946E-01 -0.32069E-01
 -0.16568E-01  0.28818E-01  0.10220E+00  0.17446E+00  0.20495E+00  0.17446E+00
  0.10220E+00  0.28818E-01 -0.16568E-01 -0.32069E-01 -0.31946E-01 -0.27908E-01
 -0.22976E-01 -0.17080E-01 -0.11570E-01 -0.77622E-02 -0.50801E-02 -0.25491E-02
 -0.11656E-03  0.56878E-03  0.85183E-09 -0.19922E-02 -0.47230E-02 -0.80330E-02
 -0.12942E-01 -0.19852E-01 -0.27160E-01 -0.33110E-01 -0.37050E-01 -0.34888E-01
 -0.13961E-01  0.39941E-01  0.12319E+00  0.20350E+00  0.23712E+00  0.20350E+00
  0.12319E+00  0.39941E-01 -0.13961E-01 -0.34888E-01 -0.37050E-01 -0.33110E-01
 -0.27160E-01 -0.19852E-01 -0.12942E-01 -0.80330E-02 -0.47230E-02 -0.19922E-02
  0.18440E-02  0.25491E-02  0.19922E-02 -0.31534E-11 -0.30329E-02 -0.70869E-02
 -0.13013E-01 -0.21027E-01 -0.29487E-01 -0.36529E-01 -0.41446E-01 -0.41055E-01
 -0.25080E-01  0.18429E-01  0.86824E-01  0.15334E+00  0.18127E+00  0.15334E+00
  0.86824E-01  0.18429E-01 -0.25080E-01 -0.41055E-01 -0.41446E-01 -0.36529E-01
 -0.29487E-01 -0.21027E-01 -0.13013E-01 -0.70869E-02 -0.30329E-02 -0.29930E-08
  0.44238E-02  0.50801E-02  0.47230E-02  0.30329E-02 -0.16079E-09 -0.44184E-02
 -0.10791E-01 -0.19297E-01 -0.28655E-01 -0.37220E-01 -0.44471E-01 -0.48898E-01
 -0.44230E-01 -0.22054E-01  0.17317E-01  0.57478E-01  0.74664E-01  0.57478E-01
  0.17317E-01 -0.22054E-01 -0.44230E-01 -0.48898E-01 -0.44471E-01 -0.37220E-01
 -0.28655E-01 -0.19297E-01 -0.10791E-01 -0.44184E-02 -0.26677E-08  0.30329E-02
  0.69560E-02  0.77622E-02  0.80330E-02  0.70869E-02  0.44184E-02 -0.48525E-10
 -0.63600E-02 -0.14895E-01 -0.24989E-01 -0.35451E-01 -0.45745E-01 -0.55417E-01
 -0.61642E-01 -0.59539E-01 -0.47628E-01 -0.32611E-01 -0.25735E-01 -0.32611E-01
 -0.47628E-01 -0.59539E-01 -0.61642E-01 -0.55417E-01 -0.45745E-01 -0.35451E-01
 -0.24989E-01 -0.14895E-01 -0.63600E-02 -0.22388E-08  0.44184E-02  0.70869E-02
  0.10133E-01  0.11570E-01  0.12942E-01  0.13013E-01  0.10791E-01  0.63600E-02
 -0.45388E-09 -0.84983E-02 -0.19203E-01 -0.31482E-01 -0.44601E-01 -0.58140E-01
 -0.71006E-01 -0.80782E-01 -0.85486E-01 -0.86029E-01 -0.85610E-01 -0.86029E-01
 -0.85486E-01 -0.80782E-01 -0.71006E-01 -0.58140E-01 -0.44601E-01 -0.31482E-01
 -0.19203E-01 -0.84983E-02 -0.14558E-08  0.63600E-02  0.10791E-01  0.13013E-01
  0.14533E-01  0.17080E-01  0.19852E-01  0.21027E-01  0.19297E-01  0.14895E-01
  0.84983E-02 -0.81764E-09 -0.11116E-01 -0.24693E-01 -0.39847E-01 -0.55700E-01
 -0.71432E-01 -0.85691E-01 -0.96723E-01 -0.10338E+00 -0.10554E+00 -0.10338E+00
 -0.96723E-01 -0.85691E-01 -0.71432E-01 -0.55700E-01 -0.39847E-01 -0.24693E-01
 -0.11116E-01 -0.66800E-09  0.84983E-02  0.14895E-01  0.19297E-01  0.21027E-01
  0.19102E-01  0.22976E-01  0.27160E-01  0.29487E-01  0.28655E-01  0.24989E-01
  0.19203E-01  0.11116E-01 -0.82441E-09 -0.14191E-01 -0.30490E-01 -0.47649E-01
 -0.64581E-01 -0.80044E-01 -0.92450E-01 -0.10038E+00 -0.10308E+00 -0.10038E+00
 -0.92450E-01 -0.80044E-01 -0.64581E-01 -0.47649E-01 -0.30490E-01 -0.14191E-01
  0.13028E-10  0.11116E-01  0.19203E-01  0.24989E-01  0.28655E-01  0.29487E-01
  0.22925E-01  0.27908E-01  0.33110E-01  0.36529E-01  0.37220E-01  0.35451E-01
  0.31482E-01  0.24693E-01  0.14191E-01 -0.59601E-09 -0.16735E-01 -0.34561E-01
 -0.52202E-01 -0.68271E-01 -0.81101E-01 -0.89261E-01 -0.92035E-01 -0.89261E-01
 -0.81101E-01 -0.68271E-01 -0.52202E-01 -0.34561E-01 -0.16735E-01  0.80759E-09
  0.14191E-01  0.24693E-01  0.31482E-01  0.35451E-01  0.37220E-01  0.36529E-01
  0.27197E-01  0.31946E-01  0.37050E-01  0.41446E-01  0.44471E-01  0.45745E-01
  0.44601E-01  0.39847E-01  0.30490E-01  0.16735E-01  0.31029E-10 -0.18037E-01
 -0.36006E-01 -0.52499E-01 -0.65789E-01 -0.74315E-01 -0.77229E-01 -0.74315E-01
 -0.65789E-01 -0.52499E-01 -0.36006E-01 -0.18037E-01  0.15607E-08  0.16735E-01
  0.30490E-01  0.39847E-01  0.44601E-01  0.45745E-01  0.44471E-01  0.41446E-01
  0.31702E-01  0.32069E-01  0.34888E-01  0.41055E-01  0.48898E-01  0.55417E-01
  0.58140E-01  0.55700E-01  0.47649E-01  0.34561E-01  0.18037E-01  0.74454E-09
 -0.17981E-01 -0.34531E-01 -0.48044E-01 -0.56887E-01 -0.59956E-01 -0.56887E-01
 -0.48044E-01 -0.34531E-01 -0.17981E-01  0.21637E-08  0.18037E-01  0.34561E-01
  0.47649E-01  0.55700E-01  0.58140E-01  0.55417E-01  0.48898E-01  0.41055E-01
  0.28895E-01  0.16568E-01  0.13961E-01  0.25080E-01  0.44230E-01  0.61642E-01
  0.71006E-01  0.71432E-01  0.64581E-01  0.52202E-01  0.36006E-01  0.17981E-01
  0.13415E-08 -0.16452E-01 -0.29946E-01 -0.38926E-01 -0.42088E-01 -0.38926E-01
 -0.29946E-01 -0.16452E-01  0.27434E-08  0.17981E-01  0.36006E-01  0.52202E-01
  0.64581E-01  0.71432E-01  0.71006E-01  0.61642E-01  0.44230E-01  0.25080E-01
  0.68983E-02 -0.28818E-01 -0.39941E-01 -0.18429E-01  0.22054E-01  0.59539E-01
  0.80782E-01  0.85691E-01  0.80044E-01  0.68271E-01  0.52499E-01  0.34531E-01
  0.16452E-01  0.20800E-08 -0.13469E-01 -0.22516E-01 -0.25735E-01 -0.22516E-01
 -0.13469E-01  0.30802E-08  0.16452E-01  0.34531E-01  0.52499E-01  0.68271E-01