# Generated by pySCP 
# 2024-01-22 21:55:14.290329
CRYSTAL
PRIMVEC
3.4751459 0.0 0.0
0.0 3.4751459 0.0
0.0 0.0 3.4751459
CONVVEC
3.4751459 0.0 0.0
0.0 3.4751459 0.0
0.0 0.0 3.4751459
PRIMCOORD
4 1
Ni 1.7375729 1.7375729 1.7375729
Ni 1.7375729 0.0 0.0
Ni 0.0 1.7375729 0.0
Ni 0.0 0.0 1.7375729
BEGIN_BLOCK_DATAGRID_3D
3D_field
BEGIN_DATAGRID_3D_UNKNOWN
30 30 30
-0.115838 -0.115838 -0.115838
3.3593077 0.0 0.0
0.0 3.3593077 0.0
0.0 0.0 3.3593077
0.0 -3.655615e-06 -6.636854e-06 1.8133153e-05 8.6198823e-05 0.000197189981
0.000377803227 0.000655174121 0.000976315616 0.001291639774 0.001752126762 0.002566357024
0.003458841952 0.003552378087 0.002271149331 0.000347520006 -0.000582654378 0.000347520006
0.002271149331 0.003552378087 0.003458841952 0.002566357024 0.001752126762 0.001291639774
0.000976315616 0.000655174121 0.000377803227 0.000197189981 8.6198823e-05 1.8133153e-05
-3.655615e-06 -1.9447089e-05 -2.4243768e-05 2.7296082e-05 0.000144864392 0.000311460068
0.000556740211 0.000918964934 0.001336185012 0.001763985024 0.002421906471 0.003557120706
0.004703490891 0.004595087755 0.002483151927 -0.000480428512 -0.001888256514 -0.000480428512
0.002483151927 0.004595087755 0.004703490891 0.003557120706 0.002421906471 0.001763985024
0.001336185012 0.000918964934 0.000556740211 0.000311460068 0.000144864392 2.7296082e-05
-6.636854e-06 -2.4243768e-05 -7.857922e-06 9.0724288e-05 0.00025925864 0.000466465776
0.000761020649 0.001206494337 0.001726658799 0.002196339646 0.002623773453 0.002781460034
0.001499080371 -0.002920088725 -0.01059463346 -0.018452474366 -0.021829224317 -0.018452474366
-0.01059463346 -0.002920088725 0.001499080371 0.002781460034 0.002623773453 0.002196339646
0.001726658799 0.001206494337 0.000761020649 0.000466465776 0.00025925864 9.0724288e-05
1.8133153e-05 2.7296082e-05 9.0724288e-05 0.000236752024 0.000436053394 0.000678151131
0.001061210615 0.001677637546 0.002416332811 0.002993808522 0.002990239745 0.001350298524
-0.004086266757 -0.015359123029 -0.031379983034 -0.046297927032 -0.052463145744 -0.046297927032
-0.031379983034 -0.015359123029 -0.004086266757 0.001350298524 0.002990239745 0.002993808522
0.002416332811 0.001677637546 0.001061210615 0.000678151131 0.000436053394 0.000236752024
8.6198823e-05 0.000144864392 0.00025925864 0.000436053394 0.000668335134 0.001016280974
0.001635236384 0.002609196389 0.003760772526 0.004666820894 0.004565211889 0.001767598967
-0.006568466042 -0.022607464806 -0.044306956532 -0.063933118574 -0.071933625106 -0.063933118574
-0.044306956532 -0.022607464806 -0.006568466042 0.001767598967 0.004565211889 0.004666820894
0.003760772526 0.002609196389 0.001635236384 0.001016280974 0.000668335134 0.000436053394
0.000197189981 0.000311460068 0.000466465776 0.000678151131 0.001016280974 0.001635434462
0.002707382688 0.004237044659 0.005958330249 0.00741298556 0.007830702914 0.005531323149
-0.002226369523 -0.017421159694 -0.037978483762 -0.056522674087 -0.064063263341 -0.056522674087
-0.037978483762 -0.017421159694 -0.002226369523 0.005531323149 0.007830702914 0.00741298556
0.005958330249 0.004237044659 0.002707382688 0.001635434462 0.001016280974 0.000678151131
0.000377803227 0.000556740211 0.000761020649 0.001061210615 0.001635236384 0.002707382688
0.004403065446 0.006609110361 0.008991912648 0.011159527788 0.012603523253 0.012207896084
0.008036929953 -0.001425571085 -0.014900758605 -0.027328196766 -0.032428025637 -0.027328196766
-0.014900758605 -0.001425571085 0.008036929953 0.012207896084 0.012603523253 0.011159527788
0.008991912648 0.006609110361 0.004403065446 0.002707382688 0.001635236384 0.001061210615
0.000655174121 0.000918964934 0.001206494337 0.001677637546 0.002609196389 0.004237044659
0.006609110361 0.009553233147 0.012769016056 0.015969162294 0.01889001844 0.021025500285
0.021382493841 0.018962609762 0.01403750328 0.008903466563 0.006697460617 0.008903466563
0.01403750328 0.018962609762 0.021382493841 0.021025500285 0.01889001844 0.015969162294
0.012769016056 0.009553233147 0.006609110361 0.004237044659 0.002609196389 0.001677637546
0.000976315616 0.001336185012 0.001726658799 0.002416332811 0.003760772526 0.005958330249
0.008991912648 0.012769016056 0.017188524915 0.022073371017 0.027174162068 0.032209580262
0.036726852158 0.0400102557 0.041552453243 0.04172569688 0.041587657951 0.04172569688
0.041552453243 0.0400102557 0.036726852158 0.032209580262 0.027174162068 0.022073371017
0.017188524915 0.012769016056 0.008991912648 0.005958330249 0.003760772526 0.002416332811
0.001291639774 0.001763985024 0.002196339646 0.002993808522 0.004666820894 0.00741298556
0.011159527788 0.015969162294 0.022073371017 0.029432944924 0.037599213997 0.046089029589
0.054485926731 0.062026753377 0.06765057213 0.070807880059 0.071758757546 0.070807880059
0.06765057213 0.062026753377 0.054485926731 0.046089029589 0.037599213997 0.029432944924
0.022073371017 0.015969162294 0.011159527788 0.00741298556 0.004666820894 0.002993808522
0.001752126762 0.002421906471 0.002623773453 0.002990239745 0.004565211889 0.007830702914
0.012603523253 0.01889001844 0.027174162068 0.037599213997 0.049471474753 0.061895286254
0.07420753931 0.085456319071 0.094151968674 0.099279182959 0.100893156864 0.099279182959
0.094151968674 0.085456319071 0.07420753931 0.061895286254 0.049471474753 0.037599213997
0.027174162068 0.01889001844 0.012603523253 0.007830702914 0.004565211889 0.002990239745
0.002566357024 0.003557120706 0.002781460034 0.001350298524 0.001767598967 0.005531323149
0.012207896084 0.021025500285 0.032209580262 0.046089029589 0.061895286254 0.078293420573
0.094316382133 0.108903859187 0.120365339782 0.12731505261 0.129561519362 0.12731505261
0.120365339782 0.108903859187 0.094316382133 0.078293420573 0.061895286254 0.046089029589
0.032209580262 0.021025500285 0.012207896084 0.005531323149 0.001767598967 0.001350298524
0.003458841952 0.004703490891 0.001499080371 -0.004086266757 -0.006568466042 -0.002226369523
0.008036929953 0.021382493841 0.036726852158 0.054485926731 0.07420753931 0.094316382133
0.11348839823 0.130687523369 0.144333053387 0.152864919624 0.155703806605 0.152864919624
0.144333053387 0.130687523369 0.11348839823 0.094316382133 0.07420753931 0.054485926731
0.036726852158 0.021382493841 0.008036929953 -0.002226369523 -0.006568466042 -0.004086266757
0.003552378087 0.004595087755 -0.002920088725 -0.015359123029 -0.022607464806 -0.017421159694
-0.001425571085 0.018962609762 0.0400102557 0.062026753377 0.085456319071 0.108903859187
0.130687523369 0.149741883606 0.164851571707 0.174516349924 0.177804708469 0.174516349924
0.164851571707 0.149741883606 0.130687523369 0.108903859187 0.085456319071 0.062026753377
0.0400102557 0.018962609762 -0.001425571085 -0.017421159694 -0.022607464806 -0.015359123029
0.002271149331 0.002483151927 -0.01059463346 -0.031379983034 -0.044306956532 -0.037978483762
-0.014900758605 0.01403750328 0.041552453243 0.06765057213 0.094151968674 0.120365339782
0.144333053387 0.164851571707 0.181006659934 0.191467621418 0.195085015991 0.191467621418
0.181006659934 0.164851571707 0.144333053387 0.120365339782 0.094151968674 0.06765057213
0.041552453243 0.01403750328 -0.014900758605 -0.037978483762 -0.044306956532 -0.031379983034
0.000347520006 -0.000480428512 -0.018452474366 -0.046297927032 -0.063933118574 -0.056522674087
-0.027328196766 0.008903466563 0.04172569688 0.070807880059 0.099279182959 0.12731505261
0.152864919624 0.174516349924 0.191467621418 0.202514757721 0.206379109213 0.202514757721
0.191467621418 0.174516349924 0.152864919624 0.12731505261 0.099279182959 0.070807880059
0.04172569688 0.008903466563 -0.027328196766 -0.056522674087 -0.063933118574 -0.046297927032
-0.000582654378 -0.001888256514 -0.021829224317 -0.052463145744 -0.071933625106 -0.064063263341
-0.032428025637 0.006697460617 0.041587657951 0.071758757546 0.100893156864 0.129561519362
0.155703806605 0.177804708469 0.195085015991 0.206379109213 0.210334634867 0.206379109213
0.195085015991 0.177804708469 0.155703806605 0.129561519362 0.100893156864 0.071758757546
0.041587657951 0.006697460617 -0.032428025637 -0.064063263341 -0.071933625106 -0.052463145744
0.000347520006 -0.000480428512 -0.018452474366 -0.046297927032 -0.063933118574 -0.056522674087
-0.027328196766 0.008903466563 0.04172569688 0.070807880059 0.099279182959 0.12731505261
0.152864919624 0.174516349924 0.191467621418 0.202514757721 0.206379109213 0.202514757721
0.191467621418 0.174516349924 0.152864919624 0.12731505261 0.099279182959 0.070807880059
0.04172569688 0.008903466563 -0.027328196766 -0.056522674087 -0.063933118574 -0.046297927032
0.002271149331 0.002483151927 -0.01059463346 -0.031379983034 -0.044306956532 -0.037978483762
-0.014900758605 0.01403750328 0.041552453243 0.06765057213 0.094151968674 0.120365339782
0.144333053387 0.164851571707 0.181006659934 0.191467621418 0.195085015991 0.191467621418
0.181006659934 0.164851571707 0.144333053387 0.120365339782 0.094151968674 0.06765057213
0.041552453243 0.01403750328 -0.014900758605 -0.037978483762 -0.044306956532 -0.031379983034
0.003552378087 0.004595087755 -0.002920088725 -0.015359123029 -0.022607464806 -0.017421159694
-0.001425571085 0.018962609762 0.0400102557 0.062026753377 0.085456319071 0.108903859187
0.130687523369 0.149741883606 0.164851571707 0.174516349924 0.177804708469 0.174516349924
0.164851571707 0.149741883606 0.130687523369 0.108903859187 0.085456319071 0.062026753377
0.0400102557 0.018962609762 -0.001425571085 -0.017421159694 -0.022607464806 -0.015359123029
0.003458841952 0.004703490891 0.001499080371 -0.004086266757 -0.006568466042 -0.002226369523
0.008036929953 0.021382493841 0.036726852158 0.054485926731 0.07420753931 0.094316382133
0.11348839823 0.130687523369 0.144333053387 0.152864919624 0.155703806605 0.152864919624
0.144333053387 0.130687523369 0.11348839823 0.094316382133 0.07420753931 0.054485926731
0.036726852158 0.021382493841 0.008036929953 -0.002226369523 -0.006568466042 -0.004086266757
0.002566357024 0.003557120706 0.002781460034 0.001350298524 0.001767598967 0.005531323149
0.012207896084 0.021025500285 0.032209580262 0.046089029589 0.061895286254 0.078293420573
0.094316382133 0.108903859187 0.120365339782 0.12731505261 0.129561519362 0.12731505261
0.120365339782 0.108903859187 0.094316382133 0.078293420573 0.061895286254 0.046089029589
0.032209580262 0.021025500285 0.012207896084 0.005531323149 0.001767598967 0.001350298524
0.001752126762 0.002421906471 0.002623773453 0.002990239745 0.004565211889 0.007830702914
0.012603523253 0.01889001844 0.027174162068 0.037599213997 0.049471474753 0.061895286254
0.07420753931 0.085456319071 0.094151968674 0.099279182959 0.100893156864 0.099279182959
0.094151968674 0.085456319071 0.07420753931 0.061895286254 0.049471474753 0.037599213997
0.027174162068 0.01889001844 0.012603523253 0.007830702914 0.004565211889 0.002990239745
0.001291639774 0.001763985024 0.002196339646 0.002993808522 0.004666820894 0.00741298556
0.011159527788 0.015969162294 0.022073371017 0.029432944924 0.037599213997 0.046089029589
0.054485926731 0.062026753377 0.06765057213 0.070807880059 0.071758757546 0.070807880059
0.06765057213 0.062026753377 0.054485926731 0.046089029589 0.037599213997 0.029432944924
0.022073371017 0.015969162294 0.011159527788 0.00741298556 0.004666820894 0.002993808522
0.000976315616 0.001336185012 0.001726658799 0.002416332811 0.003760772526 0.005958330249
0.008991912648 0.012769016056 0.017188524915 0.022073371017 0.027174162068 0.032209580262
0.036726852158 0.0400102557 0.041552453243 0.04172569688 0.041587657951 0.04172569688
0.041552453243 0.0400102557 0.036726852158 0.032209580262 0.027174162068 0.022073371017
0.017188524915 0.012769016056 0.008991912648 0.005958330249 0.003760772526 0.002416332811
0.000655174121 0.000918964934 0.001206494337 0.001677637546 0.002609196389 0.004237044659
0.006609110361 0.009553233147 0.012769016056 0.015969162294 0.01889001844 0.021025500285
0.021382493841 0.018962609762 0.01403750328 0.008903466563 0.006697460617 0.008903466563
0.01403750328 0.018962609762 0.021382493841 0.021025500285 0.01889001844 0.015969162294
0.012769016056 0.009553233147 0.006609110361 0.004237044659 0.002609196389 0.001677637546
0.000377803227 0.000556740211 0.000761020649 0.001061210615 0.001635236384 0.002707382688
0.004403065446 0.006609110361 0.008991912648 0.011159527788 0.012603523253 0.012207896084
0.008036929953 -0.001425571085 -0.014900758605 -0.027328196766 -0.032428025637 -0.027328196766
-0.014900758605 -0.001425571085 0.008036929953 0.012207896084 0.012603523253 0.011159527788
0.008991912648 0.006609110361 0.004403065446 0.002707382688 0.001635236384 0.001061210615
0.000197189981 0.000311460068 0.000466465776 0.000678151131 0.001016280974 0.001635434462
0.002707382688 0.004237044659 0.005958330249 0.00741298556 0.007830702914 0.005531323149
-0.002226369523 -0.017421159694 -0.037978483762 -0.056522674087 -0.064063263341 -0.056522674087
-0.037978483762 -0.017421159694 -0.002226369523 0.005531323149 0.007830702914 0.00741298556
0.005958330249 0.004237044659 0.002707382688 0.001635434462 0.001016280974 0.000678151131
8.6198823e-05 0.000144864392 0.00025925864 0.000436053394 0.000668335134 0.001016280974
0.001635236384 0.002609196389 0.003760772526 0.004666820894 0.004565211889 0.001767598967
-0.006568466042 -0.022607464806 -0.044306956532 -0.063933118574 -0.071933625106 -0.063933118574
-0.044306956532 -0.022607464806 -0.006568466042 0.001767598967 0.004565211889 0.004666820894
0.003760772526 0.002609196389 0.001635236384 0.001016280974 0.000668335134 0.000436053394
1.8133153e-05 2.7296082e-05 9.0724288e-05 0.000236752024 0.000436053394 0.000678151131
0.001061210615 0.001677637546 0.002416332811 0.002993808522 0.002990239745 0.001350298524
-0.004086266757 -0.015359123029 -0.031379983034 -0.046297927032 -0.052463145744 -0.046297927032
-0.031379983034 -0.015359123029 -0.004086266757 0.001350298524 0.002990239745 0.002993808522
0.002416332811 0.001677637546 0.001061210615 0.000678151131 0.000436053394 0.000236752024
-1.4626175e-05 -4.862672e-06 -4.22392e-07 1.4715443e-05 5.9800764e-05 0.000139216194
0.000271306556 0.000481098125 0.000740228055 0.001016280885 0.001408400861 0.002005746372
0.002437502126 0.001852233515 -0.000164477026 -0.002655573423 -0.003798617977 -0.002655573423
-0.000164477026 0.001852233515 0.002437502126 0.002005746372 0.001408400861 0.001016280885
0.000740228055 0.000481098125 0.000271306556 0.000139216194 5.9800764e-05 1.4715443e-05
-4.862672e-06 0.0 2.925701e-06 3.5703344e-05 0.000114719381 0.000235613738
0.000428201394 0.000734787508 0.001119784253 0.001542680641 0.002116365012 0.00284888221
0.003025101886 0.001332941227 -0.00266186174 -0.007186798925 -0.009203914353 -0.007186798925
-0.00266186174 0.001332941227 0.003025101886 0.00284888221 0.002116365012 0.001542680641
0.001119784253 0.000734787508 0.000428201394 0.000235613738 0.000114719381 3.5703344e-05
-4.22392e-07 2.925701e-06 1.9473287e-05 8.5522967e-05 0.00020576369 0.000377028388
0.00065813224 0.001112666887 0.001674917796 0.002203644222 0.002566967119 0.002222123095
-0.000374302524 -0.00705160163 -0.017519815925 -0.027757746185 -0.032078034104 -0.027757746185
-0.017519815925 -0.00705160163 -0.000374302524 0.002222123095 0.002566967119 0.002203644222
0.001674917796 0.001112666887 0.00065813224 0.000377028388 0.00020576369 8.5522967e-05
1.4715443e-05 3.5703344e-05 8.5522967e-05 0.000192329922 0.000361185717 0.00062103355
0.001073214418 0.001783323507 0.002619846175 0.003274353938 0.003204048242 0.001043399001
-0.005795473861 -0.019571669756 -0.038793328939 -0.056502518684 -0.063783029087 -0.056502518684
-0.038793328939 -0.019571669756 -0.005795473861 0.001043399001 0.003204048242 0.003274353938
0.002619846175 0.001783323507 0.001073214418 0.00062103355 0.000361185717 0.000192329922
5.9800764e-05 0.000114719381 0.00020576369 0.000361185717 0.000620670681 0.001071258991
0.001837741595 0.002939922476 0.004165428118 0.005096033531 0.004925995727 0.001739862293
-0.007716673139 -0.025908290687 -0.050512216804 -0.072754185309 -0.081816264416 -0.072754185309
-0.050512216804 -0.025908290687 -0.007716673139 0.001739862293 0.004925995727 0.005096033531
0.004165428118 0.002939922476 0.001837741595 0.001071258991 0.000620670681 0.000361185717
0.000139216194 0.000235613738 0.000377028388 0.00062103355 0.001071258991 0.001863951994
0.003097077991 0.004705665789 0.006428633967 0.007892869543 0.008391867764 0.006124887195
-0.0020123111 -0.018374943583 -0.040816399417 -0.061201524188 -0.069521762729 -0.061201524188
-0.040816399417 -0.018374943583 -0.0020123111 0.006124887195 0.008391867764 0.007892869543
0.006428633967 0.004705665789 0.003097077991 0.001863951994 0.001071258991 0.00062103355
0.000271306556 0.000428201394 0.00065813224 0.001073214418 0.001837741595 0.003097077991
0.004892836324 0.00710715394 0.00951781693 0.011910520437 0.01390247068 0.014305508089
0.010851645214 0.001595034768 -0.012332506172 -0.025489691862 -0.030941659335 -0.025489691862
-0.012332506172 0.001595034768 0.010851645214 0.014305508089 0.01390247068 0.011910520437
0.00951781693 0.00710715394 0.004892836324 0.003097077991 0.001837741595 0.001073214418
0.000481098125 0.000734787508 0.001112666887 0.001783323507 0.002939922476 0.004705665789
0.00710715394 0.010109898628 0.013653369053 0.017661359061 0.021939865646 0.025847304957
0.028049056972 0.027113582082 0.0230362101 0.018190306123 0.016023097424 0.018190306123
0.0230362101 0.027113582082 0.028049056972 0.025847304957 0.021939865646 0.017661359061
0.013653369053 0.010109898628 0.00710715394 0.004705665789 0.002939922476 0.001783323507
0.000740228055 0.001119784253 0.001674917796 0.002619846175 0.004165428118 0.006428633967
0.00951781693 0.013653369053 0.019050828122 0.025661067689 0.033117472961 0.040854125873
0.048051507776 0.053625879669 0.056802214658 0.057878213052 0.058018712072 0.057878213052
0.056802214658 0.053625879669 0.048051507776 0.040854125873 0.033117472961 0.025661067689
0.019050828122 0.013653369053 0.00951781693 0.006428633967 0.004165428118 0.002619846175
0.001016280885 0.001542680641 0.002203644222 0.003274353938 0.005096033531 0.007892869543
0.011910520437 0.017661359061 0.025661067689 0.035800672674 0.047268903885 0.05914686753
0.070686536406 0.08086853709 0.088449023191 0.092777876592 0.094110874752 0.092777876592
0.088449023191 0.08086853709 0.070686536406 0.05914686753 0.047268903885 0.035800672674
0.025661067689 0.017661359061 0.011910520437 0.007892869543 0.005096033531 0.003274353938
0.001408400861 0.002116365012 0.002566967119 0.003204048242 0.004925995727 0.008391867764
0.01390247068 0.021939865646 0.033117472961 0.047268903885 0.063145405438 0.079373547598
0.095068832479 0.109164905523 0.120058738464 0.126567766693 0.128651047115 0.126567766693
0.120058738464 0.109164905523 0.095068832479 0.079373547598 0.063145405438 0.047268903885
0.033117472961 0.021939865646 0.01390247068 0.008391867764 0.004925995727 0.003204048242
0.002005746372 0.00284888221 0.002222123095 0.001043399001 0.001739862293 0.006124887195
0.014305508089 0.025847304957 0.040854125873 0.05914686753 0.079373547598 0.099833472626
0.119485394943 0.137286855325 0.151395165593 0.160124925949 0.162999722579 0.160124925949
0.151395165593 0.137286855325 0.119485394943 0.099833472626 0.079373547598 0.05914686753
0.040854125873 0.025847304957 0.014305508089 0.006124887195 0.001739862293 0.001043399001
0.002437502126 0.003025101886 -0.000374302524 -0.00579527001 -0.007716673139 -0.0020123111
0.010851645214 0.028049056972 0.048051507776 0.070686536406 0.095068832479 0.119485394943
0.14270354026 0.163739631191 0.180759917234 0.191664392559 0.195363455302 0.191664392559
0.180759917234 0.163739631191 0.14270354026 0.119485394943 0.095068832479 0.070686536406
0.048051507776 0.028049056972 0.010851645214 -0.0020123111 -0.007716673139 -0.005795473861
0.001852233515 0.001332941227 -0.00705160163 -0.019571669756 -0.025908290687 -0.018374943583
0.001595034768 0.027113582082 0.053625879669 0.08086853709 0.109164905523 0.137286855325
0.163739631191 0.187463139425 0.206814454195 0.219514139926 0.223919277409 0.219514139926
0.206814454195 0.187463139425 0.163739631191 0.137286855325 0.109164905523 0.08086853709
0.053625879669 0.027113582082 0.001595034768 -0.018374943583 -0.025908290687 -0.019571669756
-0.000164477026 -0.00266186174 -0.017519815925 -0.038793328939 -0.050512216804 -0.040816399417
-0.012332506172 0.0230362101 0.056802214658 0.088449023191 0.120058738464 0.151395165593
0.180759917234 0.206814454195 0.228034707303 0.242151267406 0.247109071014 0.242151267406
0.228034707303 0.206814454195 0.180759917234 0.151395165593 0.120058738464 0.088449023191
0.056802214658 0.0230362101 -0.012332506172 -0.040816399417 -0.050512216804 -0.038793328939
-0.002655573423 -0.007186798925 -0.027757746185 -0.056502518684 -0.072754185309 -0.061201524188
-0.025489691862 0.018190306123 0.057878213052 0.092777876592 0.126567766693 0.160124925949
0.191664392559 0.219514139926 0.242151267406 0.257294604938 0.262656727915 0.257294604938
0.242151267406 0.219514139926 0.191664392559 0.160124925949 0.126567766693 0.092777876592
0.057878213052 0.018190306123 -0.025489691862 -0.061201524188 -0.072754185309 -0.056502518684
-0.003798617977 -0.009203914353 -0.032078034104 -0.063783029087 -0.081816264416 -0.069521762729
-0.030941659335 0.016023097424 0.058018712072 0.094110874752 0.128651047115 0.162999722579
0.195363455302 0.223919277409 0.247109071014 0.262656727915 0.268171140103 0.262656727915
0.247109071014 0.223919277409 0.195363455302 0.162999722579 0.128651047115 0.094110874752
0.058018712072 0.016023097424 -0.030941659335 -0.069521762729 -0.081816264416 -0.063783029087
-0.002655573423 -0.007186798925 -0.027757746185 -0.056502518684 -0.072754185309 -0.061201524188
-0.025489691862 0.018190306123 0.057878213052 0.092777876592 0.126567766693 0.160124925949
0.191664392559 0.219514139926 0.242151267406 0.257294604938 0.262656727915 0.257294604938
0.242151267406 0.219514139926 0.191664392559 0.160124925949 0.126567766693 0.092777876592
0.057878213052 0.018190306123 -0.025489691862 -0.061201524188 -0.072754185309 -0.056502518684
-0.000164477026 -0.00266186174 -0.017519815925 -0.038793328939 -0.050512216804 -0.040816399417
-0.012332506172 0.0230362101 0.056802214658 0.088449023191 0.120058738464 0.151395165593
0.180759917234 0.206814454195 0.228034707303 0.242151267406 0.247109071014 0.242151267406
0.228034707303 0.206814454195 0.180759917234 0.151395165593 0.120058738464 0.088449023191
0.056802214658 0.0230362101 -0.012332506172 -0.040816399417 -0.050512216804 -0.038793328939
0.001852233515 0.001332941227 -0.00705160163 -0.019571669756 -0.025908290687 -0.018374943583
0.001595034768 0.027113582082 0.053625879669 0.08086853709 0.109164905523 0.137286855325
0.163739631191 0.187463139425 0.206814454195 0.219514139926 0.223919277409 0.219514139926
0.206814454195 0.187463139425 0.163739631191 0.137286855325 0.109164905523 0.08086853709
0.053625879669 0.027113582082 0.001595034768 -0.018374943583 -0.025908290687 -0.019571669756
0.002437502126 0.003025101886 -0.000374302524 -0.005795473861 -0.007716673139 -0.0020123111
0.010851645214 0.028049056972 0.048051507776 0.070686536406 0.095068832479 0.119485394943
0.14270354026 0.163739631191 0.180759917234 0.191664392559 0.195363455302 0.191664392559
0.180759917234 0.163739631191 0.14270354026 0.119485394943 0.095068832479 0.070686536406
0.048051507776 0.028049056972 0.010851645214 -0.0020123111 -0.007716673139 -0.005795473861
0.002005746372 0.00284888221 0.002222123095 0.001043399001 0.001739862293 0.006124887195
0.014305508089 0.025847304957 0.040854125873 0.05914686753 0.079373547598 0.099833472626
0.119485394943 0.137286855325 0.151395165593 0.160124925949 0.162999722579 0.160124925949
0.151395165593 0.137286855325 0.119485394943 0.099833472626 0.079373547598 0.05914686753
0.040854125873 0.025847304957 0.014305508089 0.006124887195 0.001739862293 0.001043399001
0.001408400861 0.002116365012 0.002566967119 0.003204048242 0.004925995727 0.008391867764
0.01390247068 0.021939865646 0.033117472961 0.047268903885 0.063145405438 0.079373547598
0.095068832479 0.109164905523 0.120058738464 0.126567766693 0.128651047115 0.126567766693
0.120058738464 0.109164905523 0.095068832479 0.079373547598 0.063145405438 0.047268903885
0.033117472961 0.021939865646 0.01390247068 0.008391867764 0.004925995727 0.003204048242
0.001016280885 0.001542680641 0.002203644222 0.003274353938 0.005096033531 0.007892869543
0.011910520437 0.017661359061 0.025661067689 0.035800672674 0.047268903885 0.05914686753
0.070686536406 0.08086853709 0.088449023191 0.092777876592 0.094110874752 0.092777876592
0.088449023191 0.08086853709 0.070686536406 0.05914686753 0.047268903885 0.035800672674
0.025661067689 0.017661359061 0.011910520437 0.007892869543 0.005096033531 0.003274353938
0.000740228055 0.001119784253 0.001674917796 0.002619846175 0.004165428118 0.006428633967
0.00951781693 0.013653369053 0.019050828122 0.025661067689 0.033117472961 0.040854125873
0.048051507776 0.053625879669 0.056802214658 0.057878213052 0.058018712072 0.057878213052
0.056802214658 0.053625879669 0.048051507776 0.040854125873 0.033117472961 0.025661067689
0.019050828122 0.013653369053 0.00951781693 0.006428633967 0.004165428118 0.002619846175
0.000481098125 0.000734787508 0.001112666887 0.001783323507 0.002939922476 0.004705665789
0.00710715394 0.010109898628 0.013653369053 0.017661359061 0.021939865646 0.025847304957
0.028049056972 0.027113582082 0.0230362101 0.018190306123 0.016023097424 0.018190306123
0.0230362101 0.027113582082 0.028049056972 0.025847304957 0.021939865646 0.017661359061
0.013653369053 0.010109898628 0.00710715394 0.004705665789 0.002939922476 0.001783323507
0.000271306556 0.000428201394 0.00065813224 0.001073214418 0.001837741595 0.003097077991
0.004892836324 0.00710715394 0.00951781693 0.011910520437 0.01390247068 0.014305508089
0.010851645214 0.001595034768 -0.012332506172 -0.025489691862 -0.030941659335 -0.025489691862
-0.012332506172 0.001595034768 0.010851645214 0.014305508089 0.01390247068 0.011910520437
0.00951781693 0.00710715394 0.004892836324 0.003097077991 0.001837741595 0.001073214418
0.000139216194 0.000235613738 0.000377028388 0.00062103355 0.001071258991 0.001863951994
0.003097077991 0.004705665789 0.006428633967 0.007892869543 0.008391867764 0.006124887195
-0.0020123111 -0.018374943583 -0.040816399417 -0.061201524188 -0.069521762729 -0.061201524188
-0.040816399417 -0.018374943583 -0.0020123111 0.006124887195 0.008391867764 0.007892869543
0.006428633967 0.004705665789 0.003097077991 0.001863951994 0.001071258991 0.00062103355
5.9800764e-05 0.000114719381 0.00020576369 0.000361185717 0.000620670681 0.001071258991
0.001837741595 0.002939922476 0.004165428118 0.005096033531 0.004925995727 0.001739862293
-0.007716673139 -0.025908290687 -0.050512216804 -0.072754185309 -0.081816264416 -0.072754185309
-0.050512216804 -0.025908290687 -0.007716673139 0.001739862293 0.004925995727 0.005096033531
0.004165428118 0.002939922476 0.001837741595 0.001071258991 0.000620670681 0.000361185717
1.4715443e-05 3.5703344e-05 8.5522967e-05 0.000192329922 0.000361185717 0.00062103355
0.001073214418 0.001783323507 0.002619846175 0.003274353938 0.003204048242 0.001043399001
-0.005795473861 -0.019571669756 -0.038793328939 -0.056502518684 -0.063783029087 -0.056502518684
-0.038793328939 -0.019571669756 -0.005795473861 0.001043399001 0.003204048242 0.003274353938
0.002619846175 0.001783323507 0.001073214418 0.00062103355 0.000361185717 0.000192329922
-2.6554901e-05 -4.919894e-06 -1.966496e-06 -1.2798727e-05 -8.321681e-06 2.7710699e-05
0.000107341462 0.000254486377 0.000469390665 0.000743319374 0.001170374151 0.00190799797
0.002847985834 0.00345409043 0.003251197351 0.002507864228 0.002096739872 0.002507864228
0.003251197351 0.00345409043 0.002847985834 0.00190799797 0.001170374151 0.000743319374
0.000469390665 0.000254486377 0.000107341462 2.7710699e-05 -8.321681e-06 -1.2798727e-05
-4.919894e-06 1.1699123e-05 4.867432e-06 -6.95925e-07 2.6925843e-05 9.9077409e-05
0.000240113289 0.000492262275 0.000849642117 0.001290610469 0.001917455802 0.002821794191
0.003602105831 0.00331057431 0.001432794197 -0.00106172714 -0.00223042218 -0.00106172714
0.001432794197 0.00331057431 0.003602105831 0.002821794191 0.001917455802 0.001290610469
0.000849642117 0.000492262275 0.000240113289 9.9077409e-05 2.6925843e-05 -6.95925e-07
-1.966437e-06 4.867432e-06 0.0 1.74592e-05 8.3433779e-05 0.000213853003
0.000459843979 0.00087883893 0.001431637013 0.002009675054 0.002522071392 0.002605029955
0.001121537044 -0.0033916155 -0.010876230341 -0.018386244848 -0.021588552642 -0.018386244848
-0.010876230341 -0.0033916155 0.001121537044 0.002605029955 0.002522071392 0.002009675054
0.001431637013 0.00087883893 0.000459843979 0.000213853003 8.3433779e-05 1.74592e-05
-1.2798727e-05 -6.95925e-07 1.74592e-05 7.4860491e-05 0.000202049131 0.000441078998
0.00087180333 0.001541387881 0.002348154164 0.003057003595 0.003264687305 0.0019180999
-0.003076498199 -0.013669839521 -0.028828148068 -0.042985802203 -0.048841460027 -0.042985802203
-0.028828148068 -0.013669839521 -0.003076498199 0.0019180999 0.003264687305 0.003057003595
0.002348154164 0.001541387881 0.00087180333 0.000441078998 0.000202049131 7.4860491e-05
-8.321681e-06 2.6925843e-05 8.3433779e-05 0.000202049131 0.000440973188 0.000878163002
0.001598825931 0.002609248653 0.003757718752 0.004757881213 0.005024150727 0.003024675102
-0.004002198476 -0.018318939796 -0.038229455113 -0.056493593848 -0.063983894997 -0.056493593848
-0.038229455113 -0.018318939796 -0.004002198476 0.003024675102 0.005024150727 0.004757881213
0.003757718752 0.002609248653 0.001598825931 0.000878163002 0.000440973188 0.000202049131
2.7710699e-05 9.9077409e-05 0.000213853003 0.000441078998 0.000878163002 0.001623942529
0.00274289918 0.00420705405 0.005883798521 0.007575028081 0.008784651301 0.008016799868
0.002524567412 -0.009966352178 -0.027941305138 -0.044637130199 -0.051514545981 -0.044637130199