# Generated by pySCP 
# 2024-01-22 21:55:18.564647
CRYSTAL
PRIMVEC
3.4751459 0.0 0.0
0.0 3.4751459 0.0
0.0 0.0 3.4751459
CONVVEC
3.4751459 0.0 0.0
0.0 3.4751459 0.0
0.0 0.0 3.4751459
PRIMCOORD
4 1
Ni 1.7375729 1.7375729 1.7375729
Ni 1.7375729 0.0 0.0
Ni 0.0 1.7375729 0.0
Ni 0.0 0.0 1.7375729
BEGIN_BLOCK_DATAGRID_3D
3D_field
BEGIN_DATAGRID_3D_UNKNOWN
30 30 30
-0.115838 -0.115838 -0.115838
3.3593077 0.0 0.0
0.0 3.3593077 0.0
0.0 0.0 3.3593077
-9.4e-11 -5.195872e-05 -4.1531614e-05 6.594308e-05 0.00020273484 0.000315776593
0.000422630581 0.000517000769 0.000542396343 0.000498683107 0.000458317809 0.000436018962
0.000356363916 0.000197511996 5.449398e-05 2.048307e-06 -0.0 2.048307e-06
5.449398e-05 0.000197511996 0.000356363916 0.000436018962 0.000458317809 0.000498683107
0.000542396343 0.000517000769 0.000422630581 0.000315776593 0.00020273484 6.594308e-05
5.195872e-05 -1.09e-10 1.5997477e-05 0.000117823878 0.000227164771 0.000294346772
0.000337710531 0.000353246799 0.000304125984 0.00019941481 6.9358068e-05 -0.000110614576
-0.000325451286 -0.000384036061 -8.9791605e-05 0.00041071707 0.000663285205 0.00041071707
-8.9791605e-05 -0.000384036061 -0.000325451286 -0.000110614576 6.9358068e-05 0.00019941481
0.000304125984 0.000353246799 0.000337710531 0.000294346772 0.000227164771 0.000117823878
4.1530649e-05 -1.5998304e-05 -7.5e-11 8.9229832e-05 0.000171917227 0.000205411261
0.000203482097 0.000157022029 4.0088997e-05 -0.000136169993 -0.000373999499 -0.000712474728
-0.001045702733 -0.001017907847 -0.000375859863 0.000549757397 0.000995053093 0.000549757397
-0.000375859863 -0.001017907847 -0.001045702733 -0.000712474728 -0.000373999499 -0.000136169993
4.0088997e-05 0.000157022029 0.000203482097 0.000205411261 0.000171917227 8.9229832e-05
-6.594308e-05 -0.000117823878 -8.9229832e-05 -2.6e-11 7.3944257e-05 9.4425296e-05
6.1948112e-05 -4.5592548e-05 -0.000248538786 -0.000526703012 -0.000890928028 -0.00139598189
-0.001934424308 -0.002128577358 -0.00169353248 -0.000920618708 -0.000532582447 -0.000920618708
-0.00169353248 -0.002128577358 -0.001934424308 -0.00139598189 -0.000890928028 -0.000526703012
-0.000248538786 -4.5592548e-05 6.1948112e-05 9.4425296e-05 7.3944257e-05 1.16e-10
-0.00020273484 -0.000227164771 -0.000171917227 -7.3944257e-05 -1e-11 1.4462294e-05
-4.5874039e-05 -0.000217735411 -0.000520331062 -0.000918924782 -0.001405635605 -0.002042729602
-0.002798313911 -0.003408581834 -0.003594924633 -0.003429406663 -0.003298690397 -0.003429406663
-0.003594924633 -0.003408581834 -0.002798313911 -0.002042729602 -0.001405635605 -0.000918924782
-0.000520331062 -0.000217735411 -4.5874039e-05 1.4462294e-05 3.8e-11 -7.3944257e-05
-0.000315776593 -0.000294346772 -0.000205411261 -9.4425296e-05 -1.4462294e-05 2e-12
-7.8952562e-05 -0.000297818648 -0.000681518297 -0.0011896441 -0.001779944742 -0.0024854149
-0.003336926278 -0.00422271523 -0.004926750023 -0.00532183104 -0.005438264241 -0.00532183104
-0.004926750023 -0.00422271523 -0.003336926278 -0.0024854149 -0.001779944742 -0.0011896441
-0.000681518297 -0.000297818648 -7.8952562e-05 -1.4e-11 -1.4462294e-05 -9.4425296e-05
-0.000422630581 -0.000337710531 -0.000203482097 -6.1948112e-05 4.5874039e-05 7.8952562e-05
-1.8e-11 -0.000235779001 -0.000658300167 -0.001238117892 -0.001909122586 -0.002646148502
-0.003470667866 -0.004360017896 -0.00518783161 -0.005775830821 -0.005987759536 -0.005775830821
-0.00518783161 -0.004360017896 -0.003470667866 -0.002646148502 -0.001909122586 -0.001238117892
-0.000658300167 -0.000235779001 -4e-11 7.8952562e-05 4.5874039e-05 -6.1948112e-05
-0.000517000769 -0.000353246799 -0.000157022029 4.5592548e-05 0.000217735411 0.000297818648
0.000235779001 -4.7e-11 -0.000429003901 -0.001034929766 -0.001754091967 -0.002518024658
-0.003294037319 -0.004060284816 -0.004749676887 -0.005243121538 -0.005423658214 -0.005243121538
-0.004749676887 -0.004060284816 -0.003294037319 -0.002518024658 -0.001754091967 -0.001034929766
-0.000429003901 -4.4e-11 0.000235779001 0.000297818648 0.000217735411 4.5592548e-05
-0.000542396343 -0.000304125984 -4.0088997e-05 0.000248538786 0.000520331062 0.000681518297
0.000658300167 0.000429003901 -5.3e-11 -0.00060473575 -0.001332249432 -0.002108589525
-0.002862458307 -0.003532976255 -0.004063703581 -0.004404633555 -0.004522101656 -0.004404633555
-0.004063703581 -0.003532976255 -0.002862458307 -0.002108589525 -0.001332249432 -0.00060473575
-2.9e-11 0.000429003901 0.000658300167 0.000681518297 0.000520331062 0.000248538786
-0.000498683107 -0.00019941481 0.000136169993 0.000526703012 0.000918924782 0.0011896441
0.001238117892 0.001034929766 0.00060473575 -4.9e-11 -0.000714588812 -0.001470836192
-0.002193859112 -0.002801008063 -0.00322974651 -0.003467876904 -0.003541444507 -0.003467876904
-0.00322974651 -0.002801008063 -0.002193859112 -0.001470836192 -0.000714588812 1e-11
0.00060473575 0.001034929766 0.001238117892 0.0011896441 0.000918924782 0.000526703012
-0.000458317809 -6.9358068e-05 0.000373999499 0.000890928028 0.001405635605 0.001779944742
0.001909122586 0.001754091967 0.001332249432 0.000714588812 -2e-11 -0.000725132175
-0.001389282392 -0.001919007578 -0.002263909586 -0.002434246194 -0.002481450879 -0.002434246194
-0.002263909586 -0.001919007578 -0.001389282392 -0.000725132175 5.7e-11 0.000714588812
0.001332249432 0.001754091967 0.001909122586 0.001779944742 0.001405635605 0.000890928028
-0.000436018962 0.000110614576 0.000712474728 0.00139598189 0.002042729602 0.0024854149
0.002646148502 0.002518024658 0.002108589525 0.001470836192 0.000725132175 1.9e-11
-0.000615457616 -0.001065531462 -0.001331439973 -0.001447808707 -0.001476545249 -0.001447808707
-0.001331439973 -0.001065531462 -0.000615457616 8.1e-11 0.000725132175 0.001470836192
0.002108589525 0.002518024658 0.002646148502 0.0024854149 0.002042729602 0.00139598189
-0.000356363916 0.000325451286 0.001045702733 0.001934424308 0.002798313911 0.003336926278
0.003470667866 0.003294037319 0.002862458307 0.002193859112 0.001389282392 0.000615457616
4.6e-11 -0.000407441309 -0.000620909891 -0.000700765341 -0.000717112498 -0.000700765341
-0.000620909891 -0.000407441309 8.5e-11 0.000615457616 0.001389282392 0.002193859112
0.002862458307 0.003294037319 0.003470667866 0.003336926278 0.002798313911 0.001934424308
-0.000197511996 0.000384036061 0.001017907847 0.002128577358 0.003408581834 0.00422271523
0.004360017896 0.004060284816 0.003532976255 0.002801008063 0.001919007578 0.001065531462
0.000407441309 5.4e-11 -0.000193766698 -0.000255050518 -0.0002641952 -0.000255050518
-0.000193766698 7.2e-11 0.000407441309 0.001065531462 0.001919007578 0.002801008063
0.003532976255 0.004060284816 0.004360017896 0.00422271523 0.003408581834 0.002128577358
-5.449398e-05 8.9791605e-05 0.000375859863 0.00169353248 0.003594924633 0.004926750023
0.00518783161 0.004749676887 0.004063703581 0.00322974651 0.002263909586 0.001331439973
0.000620909891 0.000193766698 2.8e-11 -5.4459672e-05 -5.9771799e-05 -5.4459672e-05
4.1e-11 0.000193766698 0.000620909891 0.001331439973 0.002263909586 0.00322974651
0.004063703581 0.004749676887 0.00518783161 0.004926750023 0.003594924633 0.00169353248
-2.048307e-06 -0.00041071707 -0.000549757397 0.000920618708 0.003429351985 0.00532183104
0.005775830821 0.005243121538 0.004404633555 0.003467876904 0.002434246194 0.001447808707
0.000700765341 0.000255050518 5.4459672e-05 7e-12 -4.120008e-06 1.1e-11
5.4459672e-05 0.000255050518 0.000700765341 0.001447808707 0.002434246194 0.003467876904
0.004404633555 0.005243121538 0.005775830821 0.00532183104 0.003429406663 0.000920618708
0.0 -0.000663285205 -0.000995053093 0.000532582447 0.003298690397 0.005438264241
0.005987759536 0.005423658214 0.004522101656 0.003541444507 0.002481450879 0.001476545249
0.000717112498 0.0002641952 5.9771799e-05 4.120008e-06 0.0 4.120008e-06
5.9771799e-05 0.0002641952 0.000717112498 0.001476545249 0.002481450879 0.003541444507
0.004522101656 0.005423658214 0.005987759536 0.005438264241 0.003298690397 0.000532582447
-2.048307e-06 -0.00041071707 -0.000549757397 0.000920618708 0.003429351985 0.00532183104
0.005775830821 0.005243121538 0.004404633555 0.003467876904 0.002434246194 0.001447808707
0.000700765341 0.000255050518 5.4459672e-05 1e-11 -4.120008e-06 1.4e-11
5.4459672e-05 0.000255050518 0.000700765341 0.001447808707 0.002434246194 0.003467876904
0.004404633555 0.005243121538 0.005775830821 0.00532183104 0.003429351985 0.000920618708
-5.449398e-05 8.9791605e-05 0.000375859863 0.00169353248 0.003594924633 0.004926750023
0.00518783161 0.004749676887 0.004063703581 0.00322974651 0.002263909586 0.001331439973
0.000620909891 0.000193766698 4.3e-11 -5.4459672e-05 -5.9771799e-05 -5.4459672e-05
5.8e-11 0.000193766698 0.000620909891 0.001331439973 0.002263909586 0.00322974651
0.004063703581 0.004749676887 0.00518783161 0.004926750023 0.003594924633 0.00169353248
-0.000197511996 0.000384036061 0.001017907847 0.002128577358 0.003408581834 0.00422271523
0.004360017896 0.004060284816 0.003532976255 0.002801008063 0.001919007578 0.001065531462
0.000407441309 8.9e-11 -0.000193766698 -0.000255050518 -0.0002641952 -0.000255050518
-0.000193766698 1.25e-10 0.000407441309 0.001065531462 0.001919007578 0.002801008063
0.003532976255 0.004060284816 0.004360017896 0.00422271523 0.003408581834 0.002128577358
-0.000356363916 0.000325451286 0.001045702733 0.001934424308 0.002798313911 0.003336926278
0.003470667866 0.003294037319 0.002862458307 0.002193859112 0.001389282392 0.000615457616
1.27e-10 -0.000407441309 -0.000620909891 -0.000700765341 -0.000717112498 -0.000700765341
-0.000620909891 -0.000407441309 2.06e-10 0.000615457616 0.001389282392 0.002193859112
0.002862458307 0.003294037319 0.003470667866 0.003336926278 0.002798313911 0.001934424308
-0.000436018962 0.000110614576 0.000712474728 0.00139598189 0.002042729602 0.0024854149
0.002646148502 0.002518024658 0.002108589525 0.001470836192 0.000725132175 1.58e-10
-0.000615457616 -0.001065531462 -0.001331439973 -0.001447808707 -0.001476545249 -0.001447808707
-0.001331439973 -0.001065531462 -0.000615457616 2.38e-10 0.000725132175 0.001470836192
0.002108589525 0.002518024658 0.002646148502 0.0024854149 0.002042729602 0.00139598189
-0.000458317809 -6.9358068e-05 0.000373999499 0.000890928028 0.001405635605 0.001779944742
0.001909122586 0.001754091967 0.001332249432 0.000714588812 1.6e-10 -0.000725132175
-0.001389282392 -0.001919007578 -0.002263909586 -0.002434246194 -0.002481450879 -0.002434246194
-0.002263909586 -0.001919007578 -0.001389282392 -0.000725132175 2.22e-10 0.000714588812
0.001332249432 0.001754091967 0.001909122586 0.001779944742 0.001405635605 0.000890928028
-0.000498683107 -0.00019941481 0.000136169993 0.000526703012 0.000918924782 0.0011896441
0.001238117892 0.001034929766 0.00060473575 1.01e-10 -0.000714588812 -0.001470836192
-0.002193859112 -0.002801008063 -0.00322974651 -0.003467876904 -0.003541444507 -0.003467876904
-0.00322974651 -0.002801008063 -0.002193859112 -0.001470836192 -0.000714588812 2.06e-10
0.00060473575 0.001034929766 0.001238117892 0.0011896441 0.000918924782 0.000526703012
-0.000542396343 -0.000304125984 -4.0088997e-05 0.000248538786 0.000520331062 0.000681518297
0.000658300167 0.000429003901 3e-11 -0.00060473575 -0.001332249432 -0.002108589525
-0.002862458307 -0.003532976255 -0.004063703581 -0.004404633555 -0.004522101656 -0.004404633555
-0.004063703581 -0.003532976255 -0.002862458307 -0.002108589525 -0.001332249432 -0.00060473575
1.68e-10 0.000429009369 0.000658300167 0.000681518297 0.000520331062 0.000248538786
-0.000517000769 -0.000353246799 -0.000157022029 4.5592548e-05 0.000217735411 0.000297818648
0.000235779001 -1.7e-11 -0.000429003901 -0.001034929766 -0.001754091967 -0.002518024658
-0.003294037319 -0.004060284816 -0.004749676887 -0.005243121538 -0.005423658214 -0.005243121538
-0.004749676887 -0.004060284816 -0.003294037319 -0.002518024658 -0.001754091967 -0.001034929766
-0.000429003901 1.11e-10 0.000235779001 0.000297818648 0.000217735411 4.5592548e-05
-0.000422630581 -0.000337710531 -0.000203482097 -6.1948112e-05 4.5874039e-05 7.8952562e-05
-3e-11 -0.000235779001 -0.000658300167 -0.001238117892 -0.001909122586 -0.002646148502
-0.003470667866 -0.004360017896 -0.00518783161 -0.005775830821 -0.005987759536 -0.005775830821
-0.00518783161 -0.004360017896 -0.003470667866 -0.002646148502 -0.001909122586 -0.001238117892
-0.000658300167 -0.000235779001 6.7e-11 7.8952562e-05 4.5874039e-05 -6.1948112e-05
-0.000315776593 -0.000294346772 -0.000205411261 -9.4425296e-05 -1.4462294e-05 -8e-12
-7.8952562e-05 -0.000297818648 -0.000681518297 -0.0011896441 -0.001779944742 -0.0024854149
-0.003336926278 -0.00422271523 -0.004926750023 -0.00532183104 -0.005438264241 -0.00532183104
-0.004926750023 -0.00422271523 -0.003336926278 -0.0024854149 -0.001779944742 -0.0011896441
-0.000681518297 -0.000297818648 -7.8952562e-05 1.7e-11 -1.4462294e-05 -9.4425296e-05
-0.00020273484 -0.000227164771 -0.000171917227 -7.3944257e-05 1.4e-11 1.4462294e-05
-4.5874039e-05 -0.000217735411 -0.000520331062 -0.000918924782 -0.001405635605 -0.002042729602
-0.002798313911 -0.003408581834 -0.003594924633 -0.003429406663 -0.003298690397 -0.003429406663
-0.003594924633 -0.003408581834 -0.002798313911 -0.002042729602 -0.001405635605 -0.000918924782
-0.000520331062 -0.000217735411 -4.5874039e-05 1.4462294e-05 -3.5e-11 -7.3944257e-05
-6.594308e-05 -0.000117823878 -8.9229832e-05 6.1e-11 7.3944257e-05 9.4425296e-05
6.1948112e-05 -4.5592548e-05 -0.000248538786 -0.000526703012 -0.000890928028 -0.00139598189
-0.001934424308 -0.002128577358 -0.00169353248 -0.000920618708 -0.000532582447 -0.000920618708
-0.00169353248 -0.002128577358 -0.001934424308 -0.00139598189 -0.000890928028 -0.000526703012
-0.000248538786 -4.5592548e-05 6.1948112e-05 9.4425296e-05 7.3944257e-05 -9.3e-11
-1.25e-10 -8.2066987e-05 -4.8755331e-05 0.000137464573 0.00036087032 0.000538721707
0.000709623014 0.00088514344 0.000986032821 0.001005067545 0.001067615319 0.001213534826
0.001245122258 0.000931714472 0.000313027376 -0.000292092534 -0.000540159049 -0.000292092534
0.000313027376 0.000931714472 0.001245122258 0.001213534826 0.001067615319 0.001005067545
0.000986032821 0.00088514344 0.000709623014 0.000538721707 0.00036087032 0.000137464573
8.2065637e-05 -1.47e-10 3.8650986e-05 0.000205736488 0.00038008265 0.000498320806
0.000607271826 0.000714547388 0.000750842673 0.000707504582 0.00064947658 0.000562284136
0.000359310841 8.4945745e-05 -7.2903739e-05 -4.8232134e-05 -0.0 -4.8232134e-05
-7.2903739e-05 8.4945745e-05 0.000359310841 0.000562284136 0.00064947658 0.000707504582
0.000750842673 0.000714547388 0.000607271826 0.000498320806 0.00038008265 0.000205736488
4.8755331e-05 -3.8652067e-05 -9.4e-11 0.000147407758 0.000291473029 0.000384323675
0.000461519093 0.000513007771 0.000474930071 0.000340136688 0.000145869541 -9.8008278e-05
-0.000290977441 -0.000125141112 0.000617633884 0.001601344561 0.002065798939 0.001601344561
0.000617633884 -0.000125141112 -0.000290977441 -9.8008278e-05 0.000145869541 0.000340136688
0.000474930071 0.000513007771 0.000461519093 0.000384323675 0.000291473029 0.000147407758
-0.000137464573 -0.000205736488 -0.000147407758 -1.9e-11 0.00014035792 0.000231099873
0.000281878901 0.000262287285 0.000120410646 -0.000134581102 -0.000467035205 -0.000842595416
-0.001063440237 -0.000710385102 0.000423535955 0.001813846769 0.002451787936 0.001813846769
0.000423535955 -0.000710385102 -0.001063440237 -0.000842595416 -0.000467035205 -0.000134581102
0.000120410646 0.000262287285 0.000281878901 0.000231099873 0.00014035792 2.04e-10
-0.00036087032 -0.00038008265 -0.000291473029 -0.00014035792 -8e-12 8.6674311e-05
0.000101583863 0.0 -0.000255463462 -0.000636297745 -0.001101073006 -0.001626787722
-0.002056940875 -0.002034852871 -0.00135474738 -0.000396426051 5.9566182e-05 -0.000396426051
-0.00135474738 -0.002034852871 -0.002056940875 -0.001626787722 -0.001101073006 -0.000636297745
-0.000255463462 0.0 0.000101583863 8.6674311e-05 1.02e-10 -0.00014035792
-0.000538721707 -0.000498320806 -0.000384323675 -0.000231099873 -8.6674311e-05 -2e-12
-1.283544e-05 -0.000177700642 -0.000525804368 -0.001022809494 -0.001618789786 -0.00230219304
-0.003007229767 -0.003521020912 -0.003647606717 -0.003481354757 -0.003361647624 -0.003481354757
-0.003647606717 -0.003521020912 -0.003007229767 -0.00230219304 -0.001618789786 -0.001022809494
-0.000525804368 -0.000177700642 -1.283544e-05 2.2e-11 -8.6674311e-05 -0.000231099873
-0.000709623014 -0.000607271826 -0.000461519093 -0.000281878901 -0.000101583863 1.283544e-05
-7e-12 -0.00019278553 -0.0005979527 -0.001192216223 -0.001917150174 -0.002739119252
-0.003629636883 -0.004486302956 -0.005151687323 -0.005534078053 -0.005651449187 -0.005534078053
-0.005151687323 -0.004486302956 -0.003629636883 -0.002739119252 -0.001917150174 -0.001192216223
-0.0005979527 -0.00019278553 -2.2e-11 1.283544e-05 -0.000101583863 -0.000281878901
-0.00088514344 -0.000714547388 -0.000513007771 -0.000262287285 -0.0 0.000177700642
0.00019278553 -3.1e-11 -0.0004308687 -0.001091750422 -0.001921907695 -0.002848521165
-0.003814835688 -0.004747836432 -0.005533613416 -0.006054029702 -0.006234897921 -0.006054029702
-0.005533613416 -0.004747836432 -0.003814835688 -0.002848521165 -0.001921907695 -0.001091750422
-0.0004308687 -3.1e-11 0.00019278553 0.000177700642 -0.0 -0.000262287285
-0.000986032821 -0.000750842673 -0.000474930071 -0.000120410646 0.000255463462 0.000525804368
0.0005979527 0.0004308687 -4.2e-11 -0.000690190627 -0.001577019315 -0.002560315553
-0.003541512914 -0.004427327544 -0.005126194399 -0.005567356588 -0.005716893398 -0.005567356588
-0.005126194399 -0.004427327544 -0.003541512914 -0.002560315553 -0.001577019315 -0.000690190627
-1.6e-11 0.0004308687 0.0005979527 0.000525804368 0.000255463462 -0.000120410646
-0.001005067545 -0.000707504582 -0.000340136688 0.000134581102 0.000636297745 0.001022809494
0.001192216223 0.001091750422 0.000690190627 -4e-11 -0.000898187362 -0.001884114928
-0.002836640261 -0.003645623895 -0.004229935011 -0.004564432581 -0.004670343652 -0.004564432581
-0.004229935011 -0.003645623895 -0.002836640261 -0.001884114928 -0.000898187362 2.9e-11
0.000690190627 0.001091750422 0.001192216223 0.001022809494 0.000636297745 0.000134581102
-0.001067615319 -0.00064947658 -0.000145869541 0.000467035205 0.001101073006 0.001618789786
0.001917150174 0.001921907695 0.001577019315 0.000898187362 -8e-12 -0.000962021217
-0.001851414382 -0.002563179315 -0.003038398577 -0.003286176223 -0.003358974545 -0.003286176223
-0.003038398577 -0.002563179315 -0.001851414382 -0.000962021217 8.3e-11 0.000898187362
0.001577019315 0.001921907695 0.001917150174 0.001618789786 0.001101073006 0.000467035205
-0.001213534826 -0.000562284136 9.8008278e-05 0.000842595416 0.001626787722 0.00230219304
0.002739119252 0.002848521165 0.002560315553 0.001884114928 0.000962021217 3.3e-11
-0.000835564413 -0.001451187042 -0.001824434221 -0.001998877278 -0.002045600278 -0.001998877278
-0.001824434221 -0.001451187042 -0.000835564413 1.11e-10 0.000962021217 0.001884114928
0.002560315553 0.002848521165 0.002739119252 0.00230219304 0.001626787722 0.000842595416
-0.001245122258 -0.000359310841 0.000290977441 0.001063440237 0.002056940875 0.003007229767
0.003629636883 0.003814835688 0.003541512914 0.002836640261 0.001851414382 0.000835564413
5.9e-11 -0.00056240023 -0.000864472006 -0.00098438233 -0.001011326528 -0.00098438233
-0.000864472006 -0.00056240023 1.15e-10 0.000835564413 0.001851414382 0.002836640261
0.003541512914 0.003814835688 0.003629636883 0.003007229767 0.002056940875 0.001063440237
-0.000931714472 -8.4945745e-05 0.000125141112 0.000710385102 0.002034852871 0.003521020912
0.004486302956 0.004747836432 0.004427327544 0.003645623895 0.002563179315 0.001451187042
0.00056240023 6.5e-11 -0.000272565991 -0.00036169387 -0.000375940097 -0.00036169387
-0.000272565991 9.4e-11 0.00056240023 0.001451187042 0.002563179315 0.003645623895
0.004427327544 0.004747836432 0.004486302956 0.003521020912 0.002034852871 0.000710385102
-0.000313027376 7.2903739e-05 -0.000617633884 -0.000423535955 0.00135474738 0.003647606717
0.005151687323 0.005533613416 0.005126194399 0.004229935011 0.003038398577 0.001824434221
0.000864472006 0.000272565991 3.5e-11 -7.7543573e-05 -8.5283292e-05 -7.7543573e-05
5e-11 0.000272565991 0.000864472006 0.001824434221 0.003038398577 0.004229935011
0.005126194399 0.005533613416 0.005151687323 0.003647606717 0.00135474738 -0.000423535955
0.000292092534 4.8232134e-05 -0.001601344561 -0.001813846769 0.000396426051 0.003481354757
0.005534078053 0.006054029702 0.005567356588 0.004564432581 0.003286176223 0.001998877278
0.00098438233 0.00036169387 7.7543573e-05 8e-12 -5.881571e-06 1.2e-11
7.7543573e-05 0.00036169387 0.00098438233 0.001998877278 0.003286176223 0.004564432581
0.005567356588 0.006054029702 0.005534078053 0.003481354757 0.000396426051 -0.001813846769
0.000540159049 0.0 -0.002065798939 -0.002451787936 -5.9566182e-05 0.003361647624
0.005651449187 0.006234897921 0.005716893398 0.004670343652 0.003358974545 0.002045600278
0.001011326528 0.000375940097 8.5283292e-05 5.881571e-06 0.0 5.88181e-06
8.5283292e-05 0.000375940097 0.001011326528 0.002045600278 0.003358974545 0.004670343652
0.005716893398 0.006234897921 0.005651449187 0.003361647624 -5.9566182e-05 -0.002451787936
0.000292092534 4.8232134e-05 -0.001601344561 -0.001813846769 0.000396426051 0.003481354757
0.005534078053 0.006054029702 0.005567356588 0.004564432581 0.003286176223 0.001998877278
0.00098438233 0.00036169387 7.7543573e-05 1.1e-11 -5.881571e-06 1.6e-11
7.7543573e-05 0.00036169387 0.00098438233 0.001998877278 0.003286176223 0.004564432581
0.005567356588 0.006054029702 0.005534078053 0.003481354757 0.000396426051 -0.001813846769
-0.000313027376 7.2903739e-05 -0.000617633884 -0.000423535955 0.00135474738 0.003647606717
0.005151687323 0.005533613416 0.005126194399 0.004229935011 0.003038398577 0.001824434221
0.000864472006 0.000272565991 4.5e-11 -7.7543573e-05 -8.5283292e-05 -7.7543573e-05
6.7e-11 0.000272565991 0.000864472006 0.001824434221 0.003038398577 0.004229935011
0.005126194399 0.005533613416 0.005151687323 0.003647606717 0.00135474738 -0.000423535955
-0.000931714472 -8.4945745e-05 0.000125141112 0.000710385102 0.002034852871 0.003521020912
0.004486302956 0.004747836432 0.004427327544 0.003645623895 0.002563179315 0.001451187042
0.00056240023 9.4e-11 -0.000272565991 -0.00036169387 -0.000375940097 -0.00036169387
-0.000272565991 1.4e-10 0.00056240023 0.001451187042 0.002563179315 0.003645623895
0.004427327544 0.004747836432 0.004486302956 0.003521020912 0.002034852871 0.000710385102
-0.001245122258 -0.000359310841 0.000290977441 0.001063440237 0.002056940875 0.003007229767
0.003629636883 0.003814835688 0.003541512914 0.002836640261 0.001851414382 0.000835564413
1.25e-10 -0.00056240023 -0.000864472006 -0.00098438233 -0.001011326528 -0.00098438233
-0.000864472006 -0.00056240023 2.24e-10 0.000835564413 0.001851414382 0.002836640261
0.003541512914 0.003814835688 0.003629636883 0.003007229767 0.002056940875 0.001063440237
-0.001213534826 -0.000562284136 9.8008278e-05 0.000842595416 0.001626787722 0.00230219304
0.002739119252 0.002848521165 0.002560315553 0.001884114928 0.000962021217 1.41e-10
-0.000835564413 -0.001451187042 -0.001824434221 -0.001998877278 -0.002045600278 -0.001998877278
-0.001824434221 -0.001451187042 -0.000835564413 2.64e-10 0.000962021217 0.001884114928
0.002560315553 0.002848521165 0.002739119252 0.00230219304 0.001626787722 0.000842595416
-0.001067615319 -0.00064947658 -0.000145869541 0.000467035205 0.001101073006 0.001618789786
0.001917150174 0.001921907695 0.001577019315 0.000898187362 1.34e-10 -0.000962021217
-0.001851414382 -0.002563179315 -0.003038398577 -0.003286176223 -0.003358974545 -0.003286176223
-0.003038398577 -0.002563179315 -0.001851414382 -0.000962021217 2.49e-10 0.000898187362
0.001577019315 0.001921907695 0.001917150174 0.001618789786 0.001101073006 0.000467035205
-0.001005067545 -0.000707504582 -0.000340136688 0.000134581102 0.000636297745 0.001022809494
0.001192216223 0.001091750422 0.000690190627 7.4e-11 -0.000898187362 -0.001884114928
-0.002836640261 -0.003645623895 -0.004229935011 -0.004564432581 -0.004670343652 -0.004564432581
-0.004229935011 -0.003645623895 -0.002836640261 -0.001884114928 -0.000898187362 2.22e-10
0.000690190627 0.001091750422 0.001192216223 0.001022809494 0.000636297745 0.000134581102
-0.000986032821 -0.000750842673 -0.000474930071 -0.000120410646 0.000255463462 0.000525804368
0.0005979527 0.0004308687 4e-12 -0.000690190627 -0.001577019315 -0.002560315553
-0.003541512914 -0.004427327544 -0.005126194399 -0.005567356588 -0.005716893398 -0.005567356588
-0.005126194399 -0.004427327544 -0.003541512914 -0.002560315553 -0.001577019315 -0.000690190627
1.67e-10 0.0004308687 0.0005979527 0.000525804368 0.000255463462 -0.000120410646
-0.00088514344 -0.000714547388 -0.000513007771 -0.000262287285 -0.0 0.000177700642
0.00019278553 -2.7e-11 -0.0004308687 -0.001091750422 -0.001921907695 -0.002848521165
-0.003814835688 -0.004747836432 -0.005533613416 -0.006054029702 -0.006234897921 -0.006054029702
-0.005533613416 -0.004747836432 -0.003814835688 -0.002848521165 -0.001921907695 -0.001091750422
-0.0004308687 9.6e-11 0.00019278553 0.000177700642 -0.0 -0.000262287285
-0.000709623014 -0.000607271826 -0.000461519093 -0.000281878901 -0.000101583863 1.283544e-05
-1.9e-11 -0.00019278553 -0.0005979527 -0.001192216223 -0.001917150174 -0.002739119252
-0.003629636883 -0.004486302956 -0.005151687323 -0.005534078053 -0.005651449187 -0.005534078053
-0.005151687323 -0.004486302956 -0.003629636883 -0.002739119252 -0.001917150174 -0.001192216223
-0.0005979527 -0.00019278553 3.7e-11 1.283544e-05 -0.000101583863 -0.000281878901
-0.000538721707 -0.000498320806 -0.000384323675 -0.000231099873 -8.6674311e-05 1.3e-11
-1.283544e-05 -0.000177700642 -0.000525804368 -0.001022809494 -0.001618789786 -0.00230219304
-0.003007229767 -0.003521020912 -0.003647606717 -0.003481354757 -0.003361647624 -0.003481354757
-0.003647606717 -0.003521020912 -0.003007229767 -0.00230219304 -0.001618789786 -0.001022809494
-0.000525804368 -0.000177700642 -1.283544e-05 -2.4e-11 -8.6674311e-05 -0.000231099873
-0.00036087032 -0.00038008265 -0.000291473029 -0.00014035792 5e-11 8.6674311e-05
0.000101583863 0.0 -0.000255463462 -0.000636297745 -0.001101073006 -0.001626787722
-0.002056940875 -0.002034852871 -0.00135474738 -0.000396426051 5.9566182e-05 -0.000396426051
-0.00135474738 -0.002034852871 -0.002056940875 -0.001626787722 -0.001101073006 -0.000636297745
-0.000255463462 0.0 0.000101583863 8.6674311e-05 -7.2e-11 -0.00014035792
-0.000137464573 -0.000205736488 -0.000147407758 1.44e-10 0.00014035792 0.000231099873
0.000281878901 0.000262287285 0.000120410646 -0.000134581102 -0.000467035205 -0.000842595416
-0.001063440237 -0.000710385102 0.000423535955 0.001813846769 0.002451787936 0.001813846769
0.000423535955 -0.000710385102 -0.001063440237 -0.000842595416 -0.000467035205 -0.000134581102
0.000120410646 0.000262287285 0.000281878901 0.000231099873 0.00014035792 -1.33e-10
-2.16e-10 -9.6711691e-05 -1.7546424e-05 0.000254221824 0.000555141667 0.000789734219
0.001034762234 0.001327885324 0.001555112466 0.001658711791 0.001748824157 0.001817966395
0.001489787036 0.000324224548 -0.001579524403 -0.003411654296 -0.004171072514 -0.003411654296
-0.001579524403 0.000324224548 0.001489787036 0.001817966395 0.001748824157 0.001658711791
0.001555112466 0.001327885324 0.001034762234 0.000789734219 0.000555141667 0.000254221824
9.6710057e-05 -1.92e-10 7.7312427e-05 0.000312072115 0.000554955982 0.000749142292
0.000976206479 0.001246250213 0.001434109915 0.001474989286 0.001417583511 0.001188940635
0.000513981479 -0.000757071821 -0.002335786585 -0.003628368283 -0.004121686434 -0.003628368283
-0.002335786585 -0.000757071821 0.000513981479 0.001188940635 0.001417583511 0.001474989286
0.001434109915 0.001246250213 0.000976206479 0.000749142292 0.000554955982 0.000312072115
1.7546424e-05 -7.7312427e-05 -1.03e-10 0.000213303256 0.000439683813 0.000639585149
0.00086451713 0.00108757064 0.001187309941 0.001116490078 0.000922787837 0.000605545733
0.000155404198 -0.000250344043 -0.000343309461 -0.000141793473 -0.0 -0.000141793473
-0.000343309461 -0.000250344043 0.000155404198 0.000605545733 0.000922787837 0.001116490078
0.001187309941 0.00108757064 0.00086451713 0.000639585149 0.000439683813 0.000213303256
-0.000254221824 -0.000312072115 -0.000213303256 0.0 0.000234187347 0.000446807361
0.000645590849 0.000779564525 0.000754543622 0.000558376301 0.000259777151 -5.7210965e-05
-0.000192066975 0.000230601313 0.001386027026 0.002763925033 0.003391574618 0.002763925033
0.001386027026 0.000230601313 -0.000192066975 -5.7210965e-05 0.000259777151 0.000558376301
0.000754543622 0.000779564525 0.000645590849 0.000446807361 0.000234187347 2.75e-10
-0.000555141667 -0.000554955982 -0.000439683813 -0.000234187347 1e-11 0.000207667649
0.000356613767 0.000388076034 0.000239382813 -7.7797642e-05 -0.000494885119 -0.000914885065
-0.001098120828 -0.000650739403 0.000567896806 0.001996833115 0.00264198262 0.001996833115
0.000567896806 -0.000650739403 -0.001098120828 -0.000914885065 -0.000494885119 -7.7797642e-05
0.000239382813 0.000388076034 0.000356613767 0.000207667649 1.65e-10 -0.000234187347
-0.000789734219 -0.000749142292 -0.000639585149 -0.000446807361 -0.000207667649 2e-12
0.000110389557 6.2256928e-05 -0.000191370081 -0.000638997694 -0.001227917482 -0.001889401959
-0.00245454803 -0.002625816214 -0.002240945754 -0.0015904211 -0.001269588511 -0.0015904211
-0.002240945754 -0.002625816214 -0.00245454803 -0.001889401959 -0.001227917482 -0.000638997694
-0.000191370081 6.2256928e-05 0.000110389557 7.1e-11 -0.000207667649 -0.000446807361
-0.001034762234 -0.000976206479 -0.00086451713 -0.000645590849 -0.000356613767 -0.000110389557
1e-12 -8.8680859e-05 -0.000424784448 -0.001011856562 -0.0018037207 -0.002735546026
-0.003697809537 -0.004498537809 -0.004964601057 -0.005111962473 -0.005124163868 -0.005111962473