# Generated by pySCP 
# 2024-01-22 21:55:12.347277
CRYSTAL
PRIMVEC
3.4751459 0.0 0.0
0.0 3.4751459 0.0
0.0 0.0 3.4751459
CONVVEC
3.4751459 0.0 0.0
0.0 3.4751459 0.0
0.0 0.0 3.4751459
PRIMCOORD
4 1
Ni 1.7375729 1.7375729 1.7375729
Ni 1.7375729 0.0 0.0
Ni 0.0 1.7375729 0.0
Ni 0.0 0.0 1.7375729
BEGIN_BLOCK_DATAGRID_3D
3D_field
BEGIN_DATAGRID_3D_UNKNOWN
30 30 30
-0.115838 -0.115838 -0.115838
3.3593077 0.0 0.0
0.0 3.3593077 0.0
0.0 0.0 3.3593077
0.009530664143 0.010313325121 0.010430788253 0.009337865442 0.007257079741 0.004692911472
0.001623724055 -0.00203170822 -0.005542376794 -0.00858271771 -0.013344593876 -0.022679563852
-0.034282448161 -0.039419986185 -0.031708770551 -0.016896583067 -0.009376796906 -0.016896583067
-0.031708770551 -0.039419986185 -0.034282448161 -0.022679563852 -0.013344593876 -0.00858271771
-0.005542376794 -0.00203170822 0.001623724055 0.004692911472 0.007257079741 0.009337865442
0.010014562787 0.010395613792 0.009725456222 0.00783084928 0.00529709433 0.002697425851
-0.000212946527 -0.003768522247 -0.007368387177 -0.010773929286 -0.016116124842 -0.025441264126
-0.034563396113 -0.032939131149 -0.014792520054 0.010017898431 0.021704689778 0.010017898431
-0.014792520054 -0.032939131149 -0.034563396113 -0.025441264126 -0.016116124842 -0.010773929286
-0.007368387177 -0.003768522247 -0.000212946527 0.002697425851 0.00529709433 0.00783084928
0.009916784338 0.009672833151 0.008405069494 0.006254626885 0.003846667979 0.001503450366
-0.001363266098 -0.005324847372 -0.009778799677 -0.014092784387 -0.019445571002 -0.026489420766
-0.029877034819 -0.019158550086 0.009472049878 0.042775494743 0.057739154157 0.042775494743
0.009472049878 -0.019158550086 -0.029877034819 -0.026489420766 -0.019445571002 -0.014092784387
-0.009778799677 -0.005324847372 -0.001363266098 0.001503450366 0.003846667979 0.006254626885
0.009147399437 0.008457198892 0.007098179834 0.005239759272 0.003173393514 0.000820888865
-0.002600173699 -0.007663626987 -0.013607585693 -0.019175783106 -0.024263998093 -0.028307279163
-0.026146641117 -0.00929159575 0.02379822099 0.05915436774 0.074591494734 0.05915436774
0.02379822099 -0.00929159575 -0.026146641117 -0.028307279163 -0.024263998093 -0.019175783106
-0.013607585693 -0.007663626987 -0.002600130413 0.000820888865 0.003173393514 0.005239759272
0.007974111282 0.007202303008 0.006165316787 0.004771237721 0.00281796518 -4.6793451e-05
-0.00446263206 -0.010758853635 -0.018069093382 -0.024788283851 -0.029884908227 -0.032201808433
-0.027878138092 -0.011332158079 0.017426947949 0.046824064649 0.059453863477 0.046824064649
0.017426947949 -0.011332158079 -0.027878138092 -0.032201808433 -0.029884908227 -0.024788283851
-0.018069093382 -0.010758853635 -0.00446263206 -4.6793451e-05 0.00281796518 0.004771237721
0.006684532332 0.006142692028 0.005554554355 0.004446231892 0.002217961389 -0.001482745302
-0.006849422029 -0.013840995117 -0.02171159808 -0.029070774849 -0.034655234118 -0.037289145395
-0.034677987591 -0.023911028117 -0.005531449398 0.013034923633 0.020971180223 0.013034923633
-0.005531449398 -0.023911028117 -0.034677987591 -0.037289145395 -0.034655234118 -0.029070774849
-0.02171159808 -0.013840995117 -0.006849422029 -0.001482745302 0.002217961389 0.004446231892
0.005358200264 0.005248444702 0.005072908206 0.004039224384 0.001369968328 -0.003100363848
-0.009049367808 -0.016080712827 -0.02370767663 -0.031140813499 -0.037445871129 -0.041707935973
-0.042746603478 -0.039320728219 -0.03181646703 -0.023763571041 -0.020255602387 -0.023763571041
-0.03181646703 -0.039320728219 -0.042746603478 -0.041707935973 -0.037445871129 -0.031140813499
-0.02370767663 -0.016080712827 -0.009049367808 -0.003100363848 0.001369968328 0.004039224384
0.003991276555 0.004426430806 0.00462063124 0.003641839618 0.000740777819 -0.004060272561
-0.010130849081 -0.016873506152 -0.024002760456 -0.031273015703 -0.038227080378 -0.044251470976
-0.048659940572 -0.050849351165 -0.050792160024 -0.049576615388 -0.048892741803 -0.049576615388
-0.050792160024 -0.050849351165 -0.048659940572 -0.044251470976 -0.038227080378 -0.031273015703
-0.024002760456 -0.016873506152 -0.010130849081 -0.004060272561 0.000740777819 0.003641839618
0.002601479208 0.003637797367 0.004240104235 0.003467556573 0.000726054943 -0.003838952577
-0.009579131672 -0.015938979263 -0.022739210486 -0.029945277986 -0.037358183658 -0.044572429144
-0.051056348945 -0.05624452604 -0.059723822752 -0.061532327611 -0.062061121051 -0.061532327611
-0.059723822752 -0.05624452604 -0.051056348945 -0.044572429144 -0.037358183658 -0.029945277986
-0.022739210486 -0.015938979263 -0.009579131672 -0.003838952577 0.000726054943 0.003467556573
0.000940686925 0.002814866514 0.004196572294 0.003973520274 0.001662398332 -0.002408645606
-0.007593001176 -0.01350362688 -0.020083847027 -0.027284724282 -0.034877734333 -0.042516422854
-0.049750503164 -0.055960748149 -0.060509504278 -0.063130161839 -0.06395900305 -0.063130161839
-0.060509504278 -0.055960748149 -0.049750503164 -0.042516422854 -0.034877734333 -0.027284724282
-0.020083847027 -0.01350362688 -0.007593001176 -0.002408645606 0.001662398332 0.003973520274
-0.001637578576 0.001810345564 0.004986534322 0.006024838176 0.004237243609 0.000323542478
-0.004644891613 -0.010201086618 -0.016436838726 -0.023360671898 -0.03065445739 -0.037923906962
-0.044810944825 -0.050787168242 -0.055220350516 -0.057786788199 -0.058595317967 -0.057786788199
-0.055220350516 -0.050787168242 -0.044810944825 -0.037923906962 -0.03065445739 -0.023360671898
-0.016436838726 -0.010201086618 -0.004644891613 0.000323542478 0.004237243609 0.006024838176
-0.005360933729 0.000592135339 0.006796796467 0.009983659001 0.008809076607 0.004443682552
-0.001064698482 -0.006633278018 -0.012357894469 -0.018499162457 -0.024854132651 -0.031022662757
-0.036724341725 -0.041646439211 -0.045342676621 -0.047517333303 -0.048212101563 -0.047517333303
-0.045342676621 -0.041646439211 -0.036724341725 -0.031022662757 -0.024854132651 -0.018499162457
-0.012357894469 -0.006633278018 -0.001064698482 0.004443682552 0.008809076607 0.009983659001
-0.008889503752 -0.000536972825 0.008660603395 0.014099255741 0.01364945967 0.008758713346
0.002466668913 -0.003268360178 -0.008311067938 -0.013202613907 -0.018068991613 -0.022649904768
-0.026743157695 -0.030221211535 -0.032873990575 -0.034487711925 -0.035018105227 -0.034487711925
-0.032873990575 -0.030221211535 -0.026743157695 -0.022649904768 -0.018068991613 -0.013202613907
-0.008311067938 -0.003268360178 0.002466668913 0.008758713346 0.01364945967 0.014099255741
-0.009748836907 -0.00109240573 0.0086717536 0.014819185939 0.014983887679 0.010464689268
0.004447683842 -0.00074193764 -0.004708810678 -0.00806242287 -0.011201053332 -0.014076424119
-0.016571961223 -0.018659897815 -0.020277049029 -0.02129828697 -0.021643837921 -0.02129828697
-0.020277049029 -0.018659897815 -0.016571961223 -0.014076424119 -0.011201053332 -0.00806242287
-0.004708810678 -0.00074193764 0.004447683842 0.010464689268 0.014983887679 0.014819185939
-0.006804628768 -0.000886077051 0.005862269863 0.010250498208 0.010603561125 0.007705213578
0.003720297358 0.000351430218 -0.002008238898 -0.003771321609 -0.005313683113 -0.006700105003
-0.007887629644 -0.00887412512 -0.00965057961 -0.010158406471 -0.010335575387 -0.010158406471
-0.00965057961 -0.00887412512 -0.007887629644 -0.006700105003 -0.005313683113 -0.003771321609
-0.002008238898 0.000351430218 0.003720297358 0.007705213578 0.010603561125 0.010250498208
-0.002211607666 -0.000302196176 0.00188537682 0.003331359692 0.003485779855 0.002582345158
0.001313163644 0.00024564109 -0.000470663057 -0.000965384362 -0.001376327631 -0.001742126587
-0.002055431773 -0.002316334107 -0.002524531984 -0.002663785522 -0.002713193111 -0.002663785522
-0.002524531984 -0.002316334107 -0.002055431773 -0.001742126587 -0.001376327631 -0.000965384362
-0.000470663057 0.00024564109 0.001313163644 0.002582345158 0.003485779855 0.003331359692
0.0 0.0 0.0 0.0 0.0 0.0
0.0 -0.0 -0.0 -0.0 -0.0 -0.0
-0.0 -0.0 -0.0 -0.0 -0.0 0.0
0.0 0.0 0.0 0.0 0.0 0.0
0.0 0.0 0.0 0.0 0.0 0.0
-0.002211607666 -0.000302196176 0.00188537682 0.003331359692 0.003485779855 0.002582345158
0.001313163644 0.00024564109 -0.000470668502 -0.000965384362 -0.001376327631 -0.001742126587
-0.002055431773 -0.002316334107 -0.002524531984 -0.002663785522 -0.002713193111 -0.002663785522
-0.002524531984 -0.002316334107 -0.002055431773 -0.001742126587 -0.001376327631 -0.000965384362
-0.000470668502 0.00024564109 0.001313163644 0.002582345158 0.003485779855 0.003331359692
-0.006804628768 -0.000886077051 0.005862269863 0.010250498208 0.010603561125 0.007705213578
0.003720297358 0.000351430218 -0.002008238898 -0.003771321609 -0.005313683113 -0.006700105003
-0.007887629644 -0.00887412512 -0.00965057961 -0.010158406471 -0.010335575387 -0.010158406471
-0.00965057961 -0.00887412512 -0.007887629644 -0.006700105003 -0.005313683113 -0.003771321609
-0.002008238898 0.000351430218 0.003720297358 0.007705213578 0.010603561125 0.010250498208
-0.009748836907 -0.00109240573 0.0086717536 0.014819185939 0.014983887679 0.010464689268
0.004447683842 -0.00074193764 -0.004708810678 -0.00806242287 -0.011201053332 -0.014076424119
-0.016571961223 -0.018659897815 -0.020277049029 -0.02129828697 -0.021643837921 -0.02129828697
-0.020277049029 -0.018659897815 -0.016571961223 -0.014076424119 -0.011201053332 -0.00806242287
-0.004708810678 -0.00074193764 0.004447683842 0.010464689268 0.014983887679 0.014819185939
-0.008889503752 -0.000536972825 0.008660603395 0.014099255741 0.01364945967 0.008758713346
0.002466668913 -0.003268360178 -0.008311067938 -0.013202613907 -0.018068991613 -0.022649904768
-0.026743157695 -0.030221211535 -0.032873990575 -0.034487711925 -0.035018105227 -0.034487711925
-0.032873990575 -0.030221211535 -0.026743157695 -0.022649904768 -0.018068991613 -0.013202613907
-0.008311067938 -0.003268360178 0.002466668913 0.008758713346 0.01364945967 0.014099255741
-0.005360933729 0.000592135339 0.006796796467 0.009983659001 0.008809076607 0.004443682552
-0.001064698482 -0.006633278018 -0.012357894469 -0.018499162457 -0.024854132651 -0.031022662757
-0.036724341725 -0.041646439211 -0.045342676621 -0.047517333303 -0.048212101563 -0.047517333303
-0.045342676621 -0.041646439211 -0.036724341725 -0.031022662757 -0.024854132651 -0.018499162457
-0.012357894469 -0.006633278018 -0.001064698482 0.004443682552 0.008809076607 0.009983659001
-0.001637578576 0.001810345564 0.004986534322 0.006024838176 0.004237243609 0.000323542478
-0.004644891613 -0.010201086618 -0.016436838726 -0.023360671898 -0.03065445739 -0.037923906962
-0.044810944825 -0.050787168242 -0.055220350516 -0.057786788199 -0.058595317967 -0.057786788199
-0.055220350516 -0.050787168242 -0.044810944825 -0.037923906962 -0.03065445739 -0.023360671898
-0.016436838726 -0.010201086618 -0.004644891613 0.000323542478 0.004237243609 0.006024838176
0.000940686925 0.002814866514 0.004196572294 0.003973520274 0.001662398332 -0.002408645606
-0.007593001176 -0.01350362688 -0.020083847027 -0.027284724282 -0.034877734333 -0.042516422854
-0.049750503164 -0.055960748149 -0.060509504278 -0.063130161839 -0.06395900305 -0.063130161839
-0.060509504278 -0.055960748149 -0.049750503164 -0.042516422854 -0.034877734333 -0.027284724282
-0.020083847027 -0.01350362688 -0.007593001176 -0.002408645606 0.001662398332 0.003973520274
0.002601479208 0.003637797367 0.004240104235 0.003467556573 0.000726054943 -0.003838952577
-0.009579131672 -0.015938979263 -0.022739210486 -0.029945277986 -0.037358183658 -0.044572429144
-0.051056348945 -0.05624452604 -0.059723822752 -0.061532327611 -0.062061121051 -0.061532327611
-0.059723822752 -0.05624452604 -0.051056348945 -0.044572429144 -0.037358183658 -0.029945277986
-0.022739210486 -0.015938979263 -0.009579131672 -0.003838952577 0.000726054943 0.003467556573
0.003991276555 0.004426430806 0.00462063124 0.003641839618 0.000740777819 -0.004060272561
-0.010130849081 -0.016873506152 -0.024002760456 -0.031273015703 -0.038227080378 -0.044251470976
-0.048659940572 -0.050849351165 -0.050792160024 -0.049576615388 -0.048892741803 -0.049576615388
-0.050792160024 -0.050849351165 -0.048659940572 -0.044251470976 -0.038227080378 -0.031273015703
-0.024002760456 -0.016873506152 -0.010130849081 -0.004060272561 0.000740777819 0.003641839618
0.005358200264 0.005248444702 0.005072908206 0.004039224384 0.001369968328 -0.003100363848
-0.009049367808 -0.016080712827 -0.02370767663 -0.031140813499 -0.037445871129 -0.041707935973
-0.042746603478 -0.039320728219 -0.03181646703 -0.023763571041 -0.020255602387 -0.023763571041
-0.03181646703 -0.039320728219 -0.042746603478 -0.041707935973 -0.037445871129 -0.031140813499
-0.02370767663 -0.016080712827 -0.009049367808 -0.003100363848 0.001369968328 0.004039224384
0.006684532332 0.006142692028 0.005554554355 0.004446231892 0.002217961389 -0.001482745302
-0.006849422029 -0.013840995117 -0.02171159808 -0.029070774849 -0.034655234118 -0.037289145395
-0.034677987591 -0.023911028117 -0.005531449398 0.013034923633 0.020971180223 0.013034923633
-0.005531449398 -0.023911028117 -0.034677987591 -0.037289145395 -0.034655234118 -0.029070774849
-0.02171159808 -0.013840995117 -0.006849422029 -0.001482745302 0.002217961389 0.004446231892
0.007974111282 0.007202303008 0.006165316787 0.004771237721 0.00281796518 -4.6797477e-05
-0.00446263206 -0.010758853635 -0.018069093382 -0.024788283851 -0.029884908227 -0.032201808433
-0.027878138092 -0.011332158079 0.017426947949 0.046824064649 0.059453863477 0.046824064649
0.017426947949 -0.011332158079 -0.027878138092 -0.032201808433 -0.029884908227 -0.024788283851
-0.018069093382 -0.010758853635 -0.00446263206 -4.6793451e-05 0.00281796518 0.004771237721
0.009147399437 0.008457198892 0.007098179834 0.005239759272 0.003173393514 0.000820888865
-0.002600173699 -0.007663626987 -0.013607585693 -0.019175783106 -0.024263998093 -0.028307279163
-0.026146125811 -0.00929159575 0.02379822099 0.05915436774 0.074591494734 0.05915436774
0.02379822099 -0.00929159575 -0.026146641117 -0.028307279163 -0.024263998093 -0.019175783106
-0.013607585693 -0.007663626987 -0.002600173699 0.000820888865 0.003173393514 0.005239759272
0.010014562787 0.010395613792 0.009725456222 0.00783084928 0.00529709433 0.002697425851
-0.000212946527 -0.003768522247 -0.007368387177 -0.010773929286 -0.016116124842 -0.025441264126
-0.034563396113 -0.032939131149 -0.014792520054 0.010017898431 0.021704689778 0.010017898431
-0.014792520054 -0.032939131149 -0.034563396113 -0.025441264126 -0.016116124842 -0.010773929286
-0.007368387177 -0.003768522247 -0.000212946527 0.002697425851 0.00529709433 0.00783084928
0.010121238669 0.00979979524 0.008413172572 0.006149953351 0.003686771572 0.001317458422
-0.001621853382 -0.005679400062 -0.010183497256 -0.014668612156 -0.020573293919 -0.027929160547
-0.029151700769 -0.011261282279 0.029232408702 0.074270279511 0.094183137459 0.074270279511
0.029232408702 -0.011261282279 -0.029151700769 -0.027929160547 -0.020573293919 -0.014668612156
-0.010183497256 -0.005679400062 -0.001621853382 0.001317458422 0.003686771572 0.006149953351
0.009498344936 0.008631166427 0.007059686727 0.004999353476 0.002795494968 0.000295624254
-0.003412374757 -0.008810401953 -0.014902405647 -0.020565201829 -0.025929186536 -0.028951014621
-0.020012312108 0.014071845929 0.073608201147 0.13436093286 0.160397528169 0.13436093286
0.073608201147 0.014071845929 -0.020012312108 -0.028951014621 -0.025929186536 -0.020565201829
-0.014902405647 -0.008810401953 -0.003412374757 0.000295624254 0.002795494968 0.004999353476
0.00839896606 0.007439778256 0.00618305563 0.004504258924 0.002224518973 -0.001087573623
-0.006197337216 -0.013245689156 -0.020904649917 -0.027465742702 -0.031949114267 -0.031269596563
-0.016079848002 0.024845608617 0.089533245848 0.152886801864 0.179613714155 0.152886801864
0.089533245848 0.024845608617 -0.016079848002 -0.031269596563 -0.031949114267 -0.027465742702
-0.020904649917 -0.013245689156 -0.006197337216 -0.001087573623 0.002224518973 0.004504258924
0.007232950303 0.006547013702 0.005711804521 0.004138240411 0.00127360479 -0.00322532337
-0.009639212363 -0.017753911997 -0.026276874735 -0.033468679057 -0.037940565166 -0.036807623871
-0.02288341269 0.011897332148 0.065102998493 0.116448536266 0.137980872527 0.116448536266
0.065102998493 0.011897332148 -0.02288341269 -0.036807623871 -0.037940565166 -0.033468679057
-0.026276874735 -0.017753911997 -0.009639212363 -0.00322532337 0.00127360479 0.004138240411
0.006223224826 0.005910093857 0.005277401995 0.003415933283 -0.000285007646 -0.005803011332
-0.012859429759 -0.021084892586 -0.029675600615 -0.037449254896 -0.043220558097 -0.044930111848
-0.038104799541 -0.017834083509 0.014350046146 0.045816238836 0.059077661792 0.045816238836
0.014350046146 -0.017834083509 -0.038104799541 -0.044930111848 -0.043220558097 -0.037449254896
-0.029675600615 -0.021084892586 -0.012859429759 -0.005803011332 -0.000285007646 0.003415933283
0.005321519456 0.005343753697 0.004717041151 0.002467821413 -0.001852219019 -0.007870758089
-0.014959173112 -0.022795780814 -0.031194925871 -0.039698944939 -0.047516777381 -0.053313241846
-0.054686694685 -0.049033671698 -0.036747484569 -0.02359502445 -0.017876781674 -0.02359502445
-0.036747484569 -0.049033671698 -0.054686694685 -0.053313241846 -0.047516777381 -0.039698506751
-0.031194925871 -0.022795780814 -0.014959173112 -0.007870758089 -0.001852219019 0.002467821413
0.004399626433 0.004738697346 0.00414775565 0.001794552199 -0.002572656566 -0.008487642869
-0.015330661106 -0.022933989004 -0.031476423635 -0.040903212845 -0.050643932449 -0.059715033383
-0.066798309256 -0.07054429138 -0.07064012852 -0.068755282726 -0.067664095009 -0.068755282726
-0.07064012852 -0.07054429138 -0.066798309256 -0.059715033383 -0.050643932449 -0.040903212845
-0.031476423635 -0.022933989004 -0.015330661106 -0.008487642869 -0.002572656566 0.001794552199
0.003385416675 0.004121415768 0.003809367213 0.001786474125 -0.002079768127 -0.007437856535
-0.013929234166 -0.021578244901 -0.030606336041 -0.04091044366 -0.051873527147 -0.062617638778
-0.072258645711 -0.079939348928 -0.085089014155 -0.087759517799 -0.088534983411 -0.087759517799
-0.085089014155 -0.079939348928 -0.072258645711 -0.062617638778 -0.051873527147 -0.04091044366
-0.030606336041 -0.021578244901 -0.013929234166 -0.007437856535 -0.002079768127 0.001786474125
0.00212305454 0.003676710101 0.004245038813 0.003010365526 -0.000194948539 -0.005032181263
-0.011232507942 -0.018910951561 -0.028229350392 -0.038879671991 -0.050083477363 -0.061022849258
-0.071037875698 -0.079483477415 -0.085699813298 -0.089358741557 -0.090534783308 -0.089358741557
-0.085699813298 -0.079483477415 -0.071037875698 -0.061022849258 -0.050083477363 -0.038879671991
-0.028229350392 -0.018910951561 -0.011232507942 -0.005032181263 -0.000194948539 0.003010365526
0.000299628766 0.003727411062 0.006398939014 0.006607275562 0.003845527687 -0.001185486549
-0.007630739572 -0.015283890006 -0.024282813334 -0.034355009182 -0.044734892104 -0.054696565329
-0.063804039503 -0.071587415 -0.077435297654 -0.080926563466 -0.082061689363 -0.080926563466
-0.077435297654 -0.071587415 -0.063804039503 -0.054696565329 -0.044734892104 -0.034355009182
-0.024282813334 -0.015283890006 -0.007630739572 -0.001185486549 0.003845527687 0.006607275562
-0.002121724734 0.004417230807 0.01056893627 0.012999501064 0.010481393872 0.004365850033
-0.003169951232 -0.010996450443 -0.019158567416 -0.027766807773 -0.036409367454 -0.04454915887
-0.051921721234 -0.058282607688 -0.063162418472 -0.066140531485 -0.067119620285 -0.066140531485
-0.063162418472 -0.058282607688 -0.051921721234 -0.04454915887 -0.036409367454 -0.027766807773
-0.019158567416 -0.010996450443 -0.003169951232 0.004365850033 0.010481393872 0.012999501064
-0.004335724589 0.00522636719 0.014808506433 0.019539562493 0.017389398112 0.010212852993
0.001516252169 -0.006439046145 -0.013438775551 -0.020051955762 -0.026429417053 -0.032335326221
-0.037604921818 -0.042147896336 -0.045699740068 -0.047929467597 -0.048677792649 -0.047929467597
-0.045699740068 -0.042147896336 -0.037604921818 -0.032335326221 -0.026429417053 -0.020051955762
-0.013438775551 -0.006439046145 0.001516252169 0.010212852993 0.017389398112 0.019539562493
-0.004994830416 0.005075637248 0.015429705772 0.021002955835 0.019520198627 0.012759826957
0.004501070557 -0.002539862944 -0.007899180147 -0.012321919485 -0.016359456017 -0.020047420035
-0.023296191676 -0.026069419497 -0.028253164699 -0.029655716177 -0.030135427192 -0.029655716177
-0.028253164699 -0.026069419497 -0.023296191676 -0.020047420035 -0.016359456017 -0.012321919485
-0.007899180147 -0.002539862944 0.004501070557 0.012759826957 0.019520198627 0.021002955835
-0.003535937257 0.003391713124 0.010598748058 0.014650580337 0.013927795677 0.009557613671
0.004131626308 -0.000361196511 -0.003487615947 -0.005783275426 -0.007762206159 -0.009558981507
-0.011136502231 -0.012469512309 -0.013518528435 -0.014199471936 -0.014435952145 -0.014199471936
-0.013518528435 -0.012469512309 -0.011136502231 -0.009558981507 -0.007762206159 -0.005783275426
-0.003487615947 -0.000361196511 0.004131626308 0.009557613671 0.013927795677 0.014650580337
-0.001153839944 0.001086310488 0.003429566481 0.004775819614 0.004593132659 0.003225599685
0.001506409798 9.6487685e-05 -0.000842298329 -0.001483164291 -0.002012999633 -0.002493883258
-0.002917916949 -0.003274855806 -0.003554962585 -0.003737598555 -0.003801270881 -0.003737598555
-0.003554962585 -0.003274855806 -0.002917916949 -0.002493883258 -0.002012999633 -0.001483164291
-0.000842298329 9.6487685e-05 0.001506409798 0.003225599685 0.004593132659 0.004775819614
0.0 0.0 0.0 0.0 0.0 0.0
0.0 -0.0 -0.0 -0.0 -0.0 -0.0
-0.0 -0.0 -0.0 -0.0 -0.0 0.0
0.0 0.0 0.0 0.0 0.0 0.0
0.0 0.0 0.0 0.0 0.0 0.0
-0.001153839944 0.001086310488 0.003429566481 0.004775819614 0.004593132659 0.003225599685
0.001506409798 9.6482347e-05 -0.000842298329 -0.001483164291 -0.002012999633 -0.002493883258
-0.002917916949 -0.003274855806 -0.003554962585 -0.003737598555 -0.003801270881 -0.003737598555
-0.003554962585 -0.003274855806 -0.002917916949 -0.002493883258 -0.002012999633 -0.001483164291
-0.000842298329 9.6482347e-05 0.001506409798 0.003225599685 0.004593132659 0.004775819614
-0.003535937257 0.003391713124 0.010598748058 0.014650580337 0.013927795677 0.009557613671
0.004131626308 -0.000361196511 -0.003487615947 -0.005783275426 -0.007762206159 -0.009558981507
-0.011136502231 -0.012469512309 -0.013518528435 -0.014199471936 -0.014435952145 -0.014199471936
-0.013518528435 -0.012469512309 -0.011136502231 -0.009558981507 -0.007762206159 -0.005783275426
-0.003487615947 -0.000361196511 0.004131626308 0.009557613671 0.013927795677 0.014650580337
-0.004994830416 0.005075637248 0.015429705772 0.021002955835 0.019520198627 0.012759826957
0.004501070557 -0.002539862944 -0.007899180147 -0.012321919485 -0.016359456017 -0.020047420035
-0.023296191676 -0.026069419497 -0.028253164699 -0.029655716177 -0.030135427192 -0.029655716177
-0.028253164699 -0.026069419497 -0.023296191676 -0.020047420035 -0.016359456017 -0.012321919485
-0.007899180147 -0.002539862944 0.004501070557 0.012759826957 0.019520198627 0.021002955835
-0.004335724589 0.00522636719 0.014808506433 0.019539562493 0.017389398112 0.010212852993
0.001516252169 -0.006439046145 -0.013438775551 -0.020051955762 -0.026429417053 -0.032335326221
-0.037604921818 -0.042147896336 -0.045699740068 -0.047929467597 -0.048677792649 -0.047929467597
-0.045699740068 -0.042147896336 -0.037604921818 -0.032335326221 -0.026429417053 -0.020051955762
-0.013438775551 -0.006439046145 0.001516252169 0.010212852993 0.017389398112 0.019539562493
-0.002121724734 0.004417230807 0.01056893627 0.012999501064 0.010481393872 0.004365850033
-0.003169951232 -0.010996450443 -0.019158567416 -0.027766807773 -0.036409367454 -0.04454915887
-0.051921721234 -0.058282607688 -0.063162418472 -0.066140531485 -0.067119620285 -0.066140531485
-0.063162418472 -0.058282607688 -0.051921721234 -0.04454915887 -0.036409367454 -0.027766807773
-0.019158567416 -0.010996450443 -0.003169951232 0.004365850033 0.010481393872 0.012999501064
0.000299628766 0.003727411062 0.006398939014 0.006607275562 0.003845527687 -0.001185486549
-0.007630739572 -0.015283890006 -0.024282813334 -0.034355009182 -0.044734892104 -0.054696565329
-0.063804039503 -0.071587415 -0.077435297654 -0.080926563466 -0.082061689363 -0.080926563466
-0.077435297654 -0.071587415 -0.063804039503 -0.054696565329 -0.044734892104 -0.034355009182
-0.024282813334 -0.015283890006 -0.007630739572 -0.001185486549 0.003845527687 0.006607275562
0.00212305454 0.003676710101 0.004245038813 0.003010365526 -0.000194948539 -0.005032181263
-0.011232507942 -0.018910951561 -0.028229350392 -0.038879671991 -0.050083477363 -0.061022849258
-0.071037875698 -0.079483477415 -0.085699813298 -0.089358741557 -0.090534783308 -0.089358741557
-0.085699813298 -0.079483477415 -0.071037875698 -0.061022849258 -0.050083477363 -0.038879671991
-0.028229350392 -0.018910951561 -0.011232507942 -0.005032181263 -0.000194948539 0.003010365526
0.003385416675 0.004121415768 0.003809367213 0.001786474125 -0.002079768127 -0.007437856535
-0.013929234166 -0.021578244901 -0.030606336041 -0.04091044366 -0.051873527147 -0.062617638778
-0.072258645711 -0.079939348928 -0.085089014155 -0.087759517799 -0.088534983411 -0.087759517799
-0.085089014155 -0.079939348928 -0.072258645711 -0.062617638778 -0.051873527147 -0.04091044366
-0.030606336041 -0.021578244901 -0.013929234166 -0.007437856535 -0.002079768127 0.001786474125
0.004399626433 0.004738697346 0.00414775565 0.001794552199 -0.002572656566 -0.008487642869
-0.015330661106 -0.022933989004 -0.031476423635 -0.040903212845 -0.050643932449 -0.059715033383
-0.066798309256 -0.07054429138 -0.07064012852 -0.068755282726 -0.067664095009 -0.068755282726
-0.07064012852 -0.07054429138 -0.066798309256 -0.059715033383 -0.050643932449 -0.040903212845
-0.031476423635 -0.022933989004 -0.015330661106 -0.008487642869 -0.002572656566 0.001794552199
0.005321519456 0.005343753697 0.004717041151 0.002467821413 -0.001852219019 -0.007870758089
-0.014959173112 -0.022795780814 -0.031194925871 -0.039698944939 -0.047516777381 -0.053313241846
-0.054686694685 -0.049033671698 -0.036747484569 -0.02359502445 -0.017876781674 -0.02359502445
-0.036747484569 -0.049033671698 -0.054686694685 -0.053313241846 -0.047516777381 -0.039698944939
-0.031194925871 -0.022795780814 -0.014959173112 -0.007870758089 -0.001852219019 0.002467821413
0.006223224826 0.005910093857 0.005277401995 0.003415933283 -0.000285007646 -0.005803011332
-0.012859429759 -0.021084892586 -0.029675600615 -0.037449254896 -0.043220558097 -0.044930111848
-0.038104799541 -0.017834083509 0.014350046146 0.045816238836 0.059077661792 0.045816238836
0.014350046146 -0.017834083509 -0.038104799541 -0.044930111848 -0.043220558097 -0.037449254896
-0.029675600615 -0.021084892586 -0.012859429759 -0.005803011332 -0.000285007646 0.003415933283
0.007232950303 0.006547013702 0.005711804521 0.004138240411 0.00127360479 -0.00322532337
-0.009639212363 -0.017753911997 -0.026276874735 -0.033468679057 -0.037940565166 -0.036807623871
-0.02288341269 0.011897332148 0.065102998493 0.116448536266 0.137980872527 0.116448536266
0.065102998493 0.011897332148 -0.02288341269 -0.036807623871 -0.037940565166 -0.033468679057
-0.026276874735 -0.017753911997 -0.009639212363 -0.00322532337 0.00127360479 0.004138240411
0.00839896606 0.007439778256 0.00618305563 0.004504258924 0.002224518973 -0.001087573623
-0.006197337216 -0.013245689156 -0.020904649917 -0.027465742702 -0.031949114267 -0.031269596563
-0.016079848002 0.024845608617 0.089533245848 0.152886801864 0.179613714155 0.152886801864
0.089533245848 0.024845608617 -0.016079848002 -0.031269596563 -0.031949114267 -0.027465742702
-0.020904649917 -0.013245689156 -0.006197337216 -0.001087573623 0.002224518973 0.004504258924
0.009916784338 0.009672833151 0.008405069494 0.006254626885 0.003846667979 0.001503450366
-0.001363266098 -0.005324847372 -0.009778799677 -0.014092784387 -0.019445571002 -0.026489420766
-0.029877034819 -0.019158550086 0.009472049878 0.042775494743 0.057739154157 0.042775494743
0.009472049878 -0.019158550086 -0.029877034819 -0.026489420766 -0.019445571002 -0.014092784387
-0.009778799677 -0.005324847372 -0.001363266098 0.001503450366 0.003846667979 0.006254626885
0.009498344936 0.008631166427 0.007059686727 0.004999353476 0.002795494968 0.000295624254
-0.003412374757 -0.008810401953 -0.014902405647 -0.020565201829 -0.025929186536 -0.028951014621
-0.020012312108 0.014071845929 0.073608201147 0.13436093286 0.160397528169 0.13436093286
0.073608201147 0.014071845929 -0.020012312108 -0.028951014621 -0.025929186536 -0.020565201829
-0.014902405647 -0.008810401953 -0.003412374757 0.000295624254 0.002795494968 0.004999353476
0.008558970452 0.007519870959 0.006158695503 0.0043438635 0.001917227631 -0.001569145742
-0.006903822415 -0.014138186486 -0.021802311872 -0.028217855288 -0.032341067263 -0.029872202427
-0.008577651285 0.045417330895 0.128802741651 0.209524323183 0.243403402109 0.209524323183
0.128802741651 0.045417330895 -0.008577651285 -0.029872202427 -0.032341067263 -0.028217855288
-0.021802311872 -0.014138186486 -0.006903822415 -0.001569145742 0.001917227631 0.0043438635
0.007533650989 0.006757656478 0.005741659446 0.003843569011 0.00056074737 -0.004432253171
-0.011426035957 -0.020027941321 -0.028630264731 -0.035407647331 -0.038730411384 -0.033586249815
-0.007883818005 0.050871584733 0.137730326597 0.220102717254 0.254383887997 0.220102717254
0.137730326597 0.050871584733 -0.007883818005 -0.033586249815 -0.038730411384 -0.035407647331
-0.028630264731 -0.020027941321 -0.011426035957 -0.004432253171 0.00056074737 0.003843569011
0.00670659021 0.006275072215 0.005306801248 0.002844707629 -0.00157369773 -0.007833245194
-0.015705045993 -0.024718832983 -0.033714248894 -0.041272850987 -0.045862626088 -0.043235392104
-0.023782888857 0.022208272645 0.090653570826 0.155687574648 0.182770755997 0.155687574648