       #
       # Generated by the Wannier90 code http://www.wannier.org
       # On 29Dec2023 at 23:55:10 
       #
CRYSTAL
PRIMVEC
   4.1863376   0.0000000   0.0000000
   0.0000000   4.1863376   0.0000000
   0.0000000   0.0000000   4.1863376
CONVVEC
   4.1863376   0.0000000   0.0000000
   0.0000000   4.1863376   0.0000000
   0.0000000   0.0000000   4.1863376
PRIMCOORD
     8  1
O       0.0000000   0.0000000   0.0000000
O       0.0000000   2.0931688   2.0931688
O       2.0931688   0.0000000   2.0931688
O       2.0931688   2.0931688   0.0000000
Ni      0.0000000   0.0000000   2.0931688
Ni      2.0931688   0.0000000   0.0000000
Ni      0.0000000   2.0931688   0.0000000
Ni      2.0931688   2.0931688   2.0931688


BEGIN_BLOCK_DATAGRID_3D
3D_field
BEGIN_DATAGRID_3D_UNKNOWN
    45    45    45
   -0.093030   -0.093030   -0.093030
   4.0933079   0.0000000   0.0000000
   0.0000000   4.0933079   0.0000000
   0.0000000   0.0000000   4.0933079
 -0.46172E-03  0.33727E-02  0.65610E-02  0.79113E-02  0.72506E-02  0.53433E-02
  0.31616E-02  0.12620E-02 -0.28040E-03 -0.15767E-02 -0.26879E-02 -0.35982E-02
 -0.42698E-02 -0.46454E-02 -0.45886E-02 -0.38182E-02 -0.19369E-02  0.13248E-02
  0.56982E-02  0.10159E-01  0.13320E-01  0.14348E-01  0.13670E-01  0.12707E-01
  0.12707E-01  0.13670E-01  0.14348E-01  0.13320E-01  0.10159E-01  0.56982E-02
  0.13248E-02 -0.19369E-02 -0.38182E-02 -0.45886E-02 -0.46454E-02 -0.42698E-02
 -0.35982E-02 -0.26878E-02 -0.15767E-02 -0.28038E-03  0.12621E-02  0.31616E-02
  0.53434E-02  0.72507E-02  0.79114E-02  0.43981E-02  0.83272E-02  0.10878E-01
  0.11008E-01  0.89206E-02  0.57543E-02  0.26656E-02  0.18628E-03 -0.17327E-02
 -0.33081E-02 -0.46439E-02 -0.57259E-02 -0.65091E-02 -0.69343E-02 -0.68551E-02
 -0.59380E-02 -0.36517E-02  0.49560E-03  0.64766E-02  0.13386E-01  0.19685E-01
  0.24060E-01  0.26230E-01  0.26910E-01  0.26910E-01  0.26230E-01  0.24060E-01
  0.19685E-01  0.13386E-01  0.64766E-02  0.49560E-03 -0.36516E-02 -0.59380E-02
 -0.68550E-02 -0.69342E-02 -0.65091E-02 -0.57258E-02 -0.46439E-02 -0.33081E-02
 -0.17327E-02  0.18628E-03  0.26656E-02  0.57543E-02  0.89206E-02  0.11008E-01
  0.84893E-02  0.11914E-01  0.13426E-01  0.12300E-01  0.90816E-02  0.50895E-02
  0.14670E-02 -0.13646E-02 -0.35474E-02 -0.53328E-02 -0.68274E-02 -0.80216E-02
 -0.88860E-02 -0.93787E-02 -0.93609E-02 -0.84723E-02 -0.60743E-02 -0.14403E-02
  0.57462E-02  0.14889E-01  0.24478E-01  0.32739E-01  0.38459E-01  0.41276E-01
  0.41276E-01  0.38459E-01  0.32739E-01  0.24478E-01  0.14889E-01  0.57462E-02
 -0.14403E-02 -0.60743E-02 -0.84723E-02 -0.93609E-02 -0.93787E-02 -0.88859E-02
 -0.80216E-02 -0.68274E-02 -0.53328E-02 -0.35474E-02 -0.13646E-02  0.14670E-02
  0.50895E-02  0.90816E-02  0.12300E-01  0.10295E-01  0.12713E-01  0.13103E-01
  0.11088E-01  0.73753E-02  0.32040E-02 -0.47509E-03 -0.33771E-02 -0.56650E-02
 -0.75527E-02 -0.91274E-02 -0.10398E-01 -0.11361E-01 -0.11988E-01 -0.12144E-01
 -0.11476E-01 -0.93160E-02 -0.47955E-02  0.27126E-02  0.13008E-01  0.24801E-01
  0.36062E-01  0.44758E-01  0.49448E-01  0.49448E-01  0.44758E-01  0.36062E-01
  0.24801E-01  0.13008E-01  0.27125E-02 -0.47955E-02 -0.93160E-02 -0.11476E-01
 -0.12144E-01 -0.11988E-01 -0.11361E-01 -0.10398E-01 -0.91274E-02 -0.75527E-02
 -0.56650E-02 -0.33771E-02 -0.47514E-03  0.32039E-02  0.73752E-02  0.11088E-01
  0.95800E-02  0.10791E-01  0.10263E-01  0.78744E-02  0.42855E-02  0.46350E-03
 -0.29126E-02 -0.56691E-02 -0.79319E-02 -0.98451E-02 -0.11474E-01 -0.12844E-01
 -0.13962E-01 -0.14783E-01 -0.15175E-01 -0.14833E-01 -0.13179E-01 -0.93721E-02
 -0.26351E-02  0.71777E-02  0.19139E-01  0.31296E-01  0.41226E-01  0.46801E-01
  0.46801E-01  0.41226E-01  0.31296E-01  0.19139E-01  0.71776E-02 -0.26351E-02
 -0.93721E-02 -0.13179E-01 -0.14833E-01 -0.15175E-01 -0.14783E-01 -0.13962E-01
 -0.12844E-01 -0.11474E-01 -0.98451E-02 -0.79319E-02 -0.56692E-02 -0.29127E-02
  0.46341E-03  0.42853E-02  0.78743E-02  0.72974E-02  0.74235E-02  0.62889E-02
  0.38981E-02  0.74304E-03 -0.25264E-02 -0.54805E-02 -0.80186E-02 -0.10216E-01
 -0.12151E-01 -0.13866E-01 -0.15378E-01 -0.16674E-01 -0.17689E-01 -0.18301E-01
 -0.18303E-01 -0.17293E-01 -0.14612E-01 -0.95293E-02 -0.17015E-02  0.83420E-02
  0.19032E-01  0.28100E-01  0.33321E-01  0.33321E-01  0.28100E-01  0.19032E-01
  0.83420E-02 -0.17016E-02 -0.95293E-02 -0.14612E-01 -0.17293E-01 -0.18303E-01
 -0.18301E-01 -0.17689E-01 -0.16674E-01 -0.15378E-01 -0.13866E-01 -0.12152E-01
 -0.10216E-01 -0.80186E-02 -0.54806E-02 -0.25265E-02  0.74291E-03  0.38979E-02
  0.46743E-02  0.40090E-02  0.25151E-02  0.23358E-03 -0.25100E-02 -0.53137E-02
 -0.79276E-02 -0.10301E-01 -0.12473E-01 -0.14470E-01 -0.16295E-01 -0.17942E-01
 -0.19381E-01 -0.20548E-01 -0.21360E-01 -0.21709E-01 -0.21375E-01 -0.19935E-01
 -0.16841E-01 -0.11722E-01 -0.47932E-02  0.29004E-02  0.96383E-02  0.13596E-01
  0.13596E-01  0.96383E-02  0.29004E-02 -0.47932E-02 -0.11722E-01 -0.16841E-01
 -0.19935E-01 -0.21375E-01 -0.21709E-01 -0.21360E-01 -0.20548E-01 -0.19381E-01
 -0.17942E-01 -0.16295E-01 -0.14470E-01 -0.12473E-01 -0.10301E-01 -0.79277E-02
 -0.53138E-02 -0.25101E-02  0.23345E-03  0.24142E-02  0.12412E-02 -0.48789E-03
 -0.27182E-02 -0.52246E-02 -0.77584E-02 -0.10188E-01 -0.12501E-01 -0.14704E-01
 -0.16776E-01 -0.18684E-01 -0.20412E-01 -0.21947E-01 -0.23258E-01 -0.24301E-01
 -0.25021E-01 -0.25309E-01 -0.24937E-01 -0.23578E-01 -0.20961E-01 -0.17135E-01
 -0.12670E-01 -0.86262E-02 -0.62036E-02 -0.62036E-02 -0.86262E-02 -0.12670E-01
 -0.17135E-01 -0.20961E-01 -0.23578E-01 -0.24937E-01 -0.25309E-01 -0.25021E-01
 -0.24301E-01 -0.23258E-01 -0.21947E-01 -0.20412E-01 -0.18684E-01 -0.16776E-01
 -0.14704E-01 -0.12501E-01 -0.10188E-01 -0.77584E-02 -0.52246E-02 -0.27183E-02
  0.60839E-03 -0.89374E-03 -0.28126E-02 -0.50688E-02 -0.74843E-02 -0.99079E-02
 -0.12287E-01 -0.14620E-01 -0.16876E-01 -0.18993E-01 -0.20931E-01 -0.22706E-01
 -0.24344E-01 -0.25840E-01 -0.27158E-01 -0.28246E-01 -0.29038E-01 -0.29430E-01
 -0.29279E-01 -0.28453E-01 -0.26950E-01 -0.25018E-01 -0.23173E-01 -0.22035E-01
 -0.22035E-01 -0.23173E-01 -0.25018E-01 -0.26950E-01 -0.28453E-01 -0.29279E-01
 -0.29430E-01 -0.29038E-01 -0.28246E-01 -0.27158E-01 -0.25840E-01 -0.24344E-01
 -0.22706E-01 -0.20931E-01 -0.18993E-01 -0.16876E-01 -0.14620E-01 -0.12287E-01
 -0.99080E-02 -0.74844E-02 -0.50689E-02 -0.88799E-03 -0.26345E-02 -0.47142E-02
 -0.70194E-02 -0.94130E-02 -0.11822E-01 -0.14236E-01 -0.16628E-01 -0.18921E-01
 -0.21047E-01 -0.23005E-01 -0.24857E-01 -0.26645E-01 -0.28358E-01 -0.29942E-01
 -0.31348E-01 -0.32542E-01 -0.33492E-01 -0.34154E-01 -0.34481E-01 -0.34456E-01
 -0.34146E-01 -0.33727E-01 -0.33432E-01 -0.33432E-01 -0.33727E-01 -0.34146E-01
 -0.34456E-01 -0.34481E-01 -0.34154E-01 -0.33492E-01 -0.32542E-01 -0.31348E-01
 -0.29942E-01 -0.28358E-01 -0.26645E-01 -0.24857E-01 -0.23005E-01 -0.21047E-01
 -0.18921E-01 -0.16628E-01 -0.14236E-01 -0.11822E-01 -0.94130E-02 -0.70195E-02
 -0.21539E-02 -0.40980E-02 -0.63003E-02 -0.86459E-02 -0.11056E-01 -0.13519E-01
 -0.16019E-01 -0.18477E-01 -0.20792E-01 -0.22934E-01 -0.24962E-01 -0.26953E-01
 -0.28922E-01 -0.30829E-01 -0.32635E-01 -0.34335E-01 -0.35942E-01 -0.37444E-01
 -0.38800E-01 -0.39955E-01 -0.40863E-01 -0.41505E-01 -0.41895E-01 -0.42073E-01
 -0.42073E-01 -0.41895E-01 -0.41505E-01 -0.40863E-01 -0.39955E-01 -0.38800E-01
 -0.37444E-01 -0.35942E-01 -0.34335E-01 -0.32635E-01 -0.30829E-01 -0.28922E-01
 -0.26953E-01 -0.24962E-01 -0.22934E-01 -0.20792E-01 -0.18477E-01 -0.16019E-01
 -0.13519E-01 -0.11056E-01 -0.86459E-02 -0.31731E-02 -0.52655E-02 -0.75510E-02
 -0.99410E-02 -0.12421E-01 -0.14999E-01 -0.17614E-01 -0.20139E-01 -0.22493E-01
 -0.24707E-01 -0.26873E-01 -0.29037E-01 -0.31172E-01 -0.33248E-01 -0.35291E-01
 -0.37363E-01 -0.39493E-01 -0.41632E-01 -0.43679E-01 -0.45534E-01 -0.47120E-01
 -0.48378E-01 -0.49258E-01 -0.49712E-01 -0.49712E-01 -0.49258E-01 -0.48378E-01
 -0.47120E-01 -0.45534E-01 -0.43679E-01 -0.41632E-01 -0.39493E-01 -0.37363E-01
 -0.35291E-01 -0.33248E-01 -0.31172E-01 -0.29037E-01 -0.26873E-01 -0.24707E-01
 -0.22493E-01 -0.20139E-01 -0.17614E-01 -0.14999E-01 -0.12421E-01 -0.99410E-02
 -0.39102E-02 -0.60907E-02 -0.84319E-02 -0.10895E-01 -0.13505E-01 -0.16241E-01
 -0.18983E-01 -0.21595E-01 -0.24044E-01 -0.26406E-01 -0.28750E-01 -0.31079E-01
 -0.33373E-01 -0.35671E-01 -0.38073E-01 -0.40656E-01 -0.43406E-01 -0.46215E-01
 -0.48947E-01 -0.51483E-01 -0.53728E-01 -0.55583E-01 -0.56926E-01 -0.57637E-01
 -0.57637E-01 -0.56926E-01 -0.55583E-01 -0.53728E-01 -0.51483E-01 -0.48947E-01
 -0.46215E-01 -0.43406E-01 -0.40656E-01 -0.38073E-01 -0.35671E-01 -0.33373E-01
 -0.31079E-01 -0.28750E-01 -0.26406E-01 -0.24044E-01 -0.21595E-01 -0.18983E-01
 -0.16241E-01 -0.13505E-01 -0.10895E-01 -0.43172E-02 -0.65224E-02 -0.89075E-02
 -0.11484E-01 -0.14270E-01 -0.17185E-01 -0.20069E-01 -0.22817E-01 -0.25445E-01
 -0.28017E-01 -0.30553E-01 -0.33050E-01 -0.35566E-01 -0.38227E-01 -0.41147E-01
 -0.44346E-01 -0.47758E-01 -0.51279E-01 -0.54805E-01 -0.58223E-01 -0.61382E-01
 -0.64074E-01 -0.66060E-01 -0.67119E-01 -0.67119E-01 -0.66060E-01 -0.64074E-01
 -0.61382E-01 -0.58223E-01 -0.54805E-01 -0.51279E-01 -0.47758E-01 -0.44346E-01
 -0.41147E-01 -0.38227E-01 -0.35566E-01 -0.33050E-01 -0.30553E-01 -0.28017E-01
 -0.25445E-01 -0.22817E-01 -0.20069E-01 -0.17185E-01 -0.14270E-01 -0.11484E-01
 -0.42671E-02 -0.64262E-02 -0.88521E-02 -0.11587E-01 -0.14596E-01 -0.17724E-01
 -0.20800E-01 -0.23771E-01 -0.26665E-01 -0.29495E-01 -0.32246E-01 -0.34979E-01
 -0.37855E-01 -0.41035E-01 -0.44577E-01 -0.48453E-01 -0.52634E-01 -0.57106E-01
 -0.61807E-01 -0.66550E-01 -0.71031E-01 -0.74875E-01 -0.77704E-01 -0.79208E-01
 -0.79208E-01 -0.77704E-01 -0.74875E-01 -0.71031E-01 -0.66550E-01 -0.61807E-01
 -0.57106E-01 -0.52634E-01 -0.48453E-01 -0.44577E-01 -0.41035E-01 -0.37855E-01
 -0.34979E-01 -0.32246E-01 -0.29495E-01 -0.26665E-01 -0.23771E-01 -0.20800E-01
 -0.17724E-01 -0.14596E-01 -0.11587E-01 -0.34860E-02 -0.54823E-02 -0.79238E-02
 -0.10869E-01 -0.14197E-01 -0.17662E-01 -0.21079E-01 -0.24410E-01 -0.27658E-01
 -0.30792E-01 -0.33828E-01 -0.36930E-01 -0.40318E-01 -0.44116E-01 -0.48335E-01
 -0.53012E-01 -0.58264E-01 -0.64155E-01 -0.70541E-01 -0.77046E-01 -0.83166E-01
 -0.88375E-01 -0.92185E-01 -0.94202E-01 -0.94202E-01 -0.92185E-01 -0.88375E-01
 -0.83166E-01 -0.77046E-01 -0.70541E-01 -0.64155E-01 -0.58264E-01 -0.53012E-01
 -0.48335E-01 -0.44116E-01 -0.40318E-01 -0.36930E-01 -0.33828E-01 -0.30792E-01
 -0.27658E-01 -0.24410E-01 -0.21079E-01 -0.17662E-01 -0.14197E-01 -0.10869E-01
 -0.15869E-02 -0.31785E-02 -0.55105E-02 -0.86921E-02 -0.12519E-01 -0.16615E-01
 -0.20691E-01 -0.24625E-01 -0.28356E-01 -0.31872E-01 -0.35308E-01 -0.38927E-01
 -0.42938E-01 -0.47402E-01 -0.52392E-01 -0.58138E-01 -0.64896E-01 -0.72667E-01
 -0.81095E-01 -0.89620E-01 -0.97630E-01 -0.10449E+00 -0.10956E+00 -0.11226E+00
 -0.11226E+00 -0.10956E+00 -0.10449E+00 -0.97630E-01 -0.89620E-01 -0.81095E-01
 -0.72667E-01 -0.64896E-01 -0.58138E-01 -0.52392E-01 -0.47402E-01 -0.42938E-01
 -0.38927E-01 -0.35308E-01 -0.31872E-01 -0.28356E-01 -0.24625E-01 -0.20691E-01
 -0.16615E-01 -0.12519E-01 -0.86921E-02  0.16865E-02  0.95363E-03 -0.91924E-03
 -0.42279E-02 -0.87593E-02 -0.13951E-01 -0.19229E-01 -0.24192E-01 -0.28654E-01
 -0.32700E-01 -0.36669E-01 -0.40919E-01 -0.45605E-01 -0.50788E-01 -0.56732E-01
 -0.63891E-01 -0.72522E-01 -0.82419E-01 -0.93071E-01 -0.10392E+00 -0.11433E+00
 -0.12342E+00 -0.13017E+00 -0.13375E+00 -0.13375E+00 -0.13017E+00 -0.12342E+00
 -0.11433E+00 -0.10392E+00 -0.93071E-01 -0.82419E-01 -0.72522E-01 -0.63891E-01
 -0.56732E-01 -0.50788E-01 -0.45605E-01 -0.40919E-01 -0.36669E-01 -0.32700E-01
 -0.28653E-01 -0.24192E-01 -0.19229E-01 -0.13951E-01 -0.87593E-02 -0.42278E-02
  0.60517E-02  0.68655E-02  0.61319E-02  0.31039E-02 -0.21927E-02 -0.89866E-02
 -0.16175E-01 -0.22796E-01 -0.28407E-01 -0.33229E-01 -0.37869E-01 -0.42805E-01
 -0.48183E-01 -0.54173E-01 -0.61293E-01 -0.70127E-01 -0.80784E-01 -0.92894E-01
 -0.10604E+00 -0.11977E+00 -0.13311E+00 -0.14447E+00 -0.15238E+00 -0.15629E+00
 -0.15629E+00 -0.15238E+00 -0.14447E+00 -0.13311E+00 -0.11976E+00 -0.10604E+00
 -0.92893E-01 -0.80784E-01 -0.70127E-01 -0.61293E-01 -0.54173E-01 -0.48183E-01
 -0.42805E-01 -0.37869E-01 -0.33228E-01 -0.28407E-01 -0.22796E-01 -0.16175E-01
 -0.89866E-02 -0.21926E-02  0.31039E-02  0.10473E-01  0.13636E-01  0.15020E-01
  0.13060E-01  0.72710E-02 -0.14343E-02 -0.11205E-01 -0.20197E-01 -0.27499E-01
 -0.33412E-01 -0.38852E-01 -0.44486E-01 -0.50559E-01 -0.57446E-01 -0.65892E-01
 -0.76470E-01 -0.89121E-01 -0.10353E+00 -0.11954E+00 -0.13640E+00 -0.15184E+00
 -0.16294E+00 -0.16851E+00 -0.17017E+00 -0.17017E+00 -0.16851E+00 -0.16294E+00
 -0.15184E+00 -0.13640E+00 -0.11954E+00 -0.10353E+00 -0.89121E-01 -0.76470E-01
 -0.65892E-01 -0.57446E-01 -0.50559E-01 -0.44486E-01 -0.38852E-01 -0.33412E-01
 -0.27499E-01 -0.20197E-01 -0.11205E-01 -0.14342E-02  0.72711E-02  0.13060E-01
  0.13557E-01  0.19725E-01  0.24231E-01  0.24340E-01  0.18684E-01  0.81467E-02
 -0.45654E-02 -0.16469E-01 -0.25942E-01 -0.33242E-01 -0.39581E-01 -0.45894E-01
 -0.52647E-01 -0.60464E-01 -0.70230E-01 -0.82423E-01 -0.96931E-01 -0.11371E+00
 -0.13262E+00 -0.15155E+00 -0.16557E+00 -0.17010E+00 -0.16604E+00 -0.16047E+00
 -0.16047E+00 -0.16604E+00 -0.17010E+00 -0.16557E+00 -0.15155E+00 -0.13262E+00
 -0.11371E+00 -0.96931E-01 -0.82423E-01 -0.70230E-01 -0.60464E-01 -0.52647E-01
 -0.45894E-01 -0.39581E-01 -0.33242E-01 -0.25942E-01 -0.16468E-01 -0.45653E-02
  0.81467E-02  0.18684E-01  0.24340E-01  0.14476E-01  0.23842E-01  0.32037E-01
  0.34977E-01  0.30156E-01  0.18237E-01  0.27274E-02 -0.12173E-01 -0.23990E-01
 -0.32800E-01 -0.40049E-01 -0.46985E-01 -0.54359E-01 -0.63032E-01 -0.73945E-01
 -0.87478E-01 -0.10360E+00 -0.12257E+00 -0.14368E+00 -0.16229E+00 -0.16970E+00
 -0.15992E+00 -0.13810E+00 -0.12004E+00 -0.12004E+00 -0.13810E+00 -0.15992E+00
 -0.16970E+00 -0.16229E+00 -0.14368E+00 -0.12257E+00 -0.10360E+00 -0.87478E-01
 -0.73945E-01 -0.63032E-01 -0.54359E-01 -0.46985E-01 -0.40049E-01 -0.32799E-01
 -0.23990E-01 -0.12173E-01  0.27275E-02  0.18237E-01  0.30156E-01  0.34977E-01
  0.13686E-01  0.25767E-01  0.37333E-01  0.43087E-01  0.39433E-01  0.26722E-01
  0.90611E-02 -0.83167E-02 -0.22150E-01 -0.32277E-01 -0.40297E-01 -0.47730E-01
 -0.55592E-01 -0.64924E-01 -0.76678E-01 -0.91170E-01 -0.10852E+00 -0.12912E+00
 -0.15133E+00 -0.16751E+00 -0.16520E+00 -0.13762E+00 -0.95060E-01 -0.62812E-01
 -0.62812E-01 -0.95060E-01 -0.13762E+00 -0.16520E+00 -0.16751E+00 -0.15133E+00
 -0.12912E+00 -0.10852E+00 -0.91170E-01 -0.76678E-01 -0.64924E-01 -0.55592E-01
 -0.47730E-01 -0.40297E-01 -0.32277E-01 -0.22150E-01 -0.83167E-02  0.90611E-02
  0.26722E-01  0.39433E-01  0.43087E-01  0.12651E-01  0.26296E-01  0.39889E-01
  0.47416E-01  0.44604E-01  0.31577E-01  0.12761E-01 -0.60182E-02 -0.21023E-01
 -0.31925E-01 -0.40394E-01 -0.48108E-01 -0.56242E-01 -0.65934E-01 -0.78129E-01
 -0.93123E-01 -0.11113E+00 -0.13259E+00 -0.15508E+00 -0.16894E+00 -0.15935E+00
 -0.11923E+00 -0.62459E-01 -0.20623E-01 -0.20623E-01 -0.62459E-01 -0.11923E+00
 -0.15934E+00 -0.16894E+00 -0.15508E+00 -0.13259E+00 -0.11113E+00 -0.93123E-01
 -0.78129E-01 -0.65934E-01 -0.56242E-01 -0.48108E-01 -0.40394E-01 -0.31925E-01
 -0.21023E-01 -0.60182E-02  0.12761E-01  0.31577E-01  0.44604E-01  0.47416E-01
  0.12651E-01  0.26296E-01  0.39889E-01  0.47416E-01  0.44604E-01  0.31577E-01
  0.12761E-01 -0.60183E-02 -0.21023E-01 -0.31925E-01 -0.40394E-01 -0.48108E-01
 -0.56242E-01 -0.65934E-01 -0.78129E-01 -0.93123E-01 -0.11113E+00 -0.13259E+00
 -0.15508E+00 -0.16894E+00 -0.15934E+00 -0.11923E+00 -0.62458E-01 -0.20623E-01
 -0.20623E-01 -0.62458E-01 -0.11923E+00 -0.15934E+00 -0.16894E+00 -0.15508E+00
 -0.13259E+00 -0.11113E+00 -0.93123E-01 -0.78129E-01 -0.65934E-01 -0.56242E-01
 -0.48108E-01 -0.40394E-01 -0.31925E-01 -0.21023E-01 -0.60183E-02  0.12761E-01
  0.31577E-01  0.44604E-01  0.47416E-01  0.13686E-01  0.25768E-01  0.37333E-01
  0.43087E-01  0.39433E-01  0.26722E-01  0.90609E-02 -0.83168E-02 -0.22150E-01
 -0.32277E-01 -0.40297E-01 -0.47730E-01 -0.55592E-01 -0.64924E-01 -0.76678E-01
 -0.91170E-01 -0.10852E+00 -0.12912E+00 -0.15133E+00 -0.16751E+00 -0.16520E+00
 -0.13762E+00 -0.95059E-01 -0.62811E-01 -0.62811E-01 -0.95059E-01 -0.13762E+00
 -0.16520E+00 -0.16751E+00 -0.15133E+00 -0.12912E+00 -0.10852E+00 -0.91170E-01
 -0.76678E-01 -0.64924E-01 -0.55592E-01 -0.47730E-01 -0.40297E-01 -0.32277E-01
 -0.22150E-01 -0.83168E-02  0.90609E-02  0.26722E-01  0.39433E-01  0.43087E-01
  0.14476E-01  0.23842E-01  0.32038E-01  0.34977E-01  0.30155E-01  0.18237E-01
  0.27272E-02 -0.12173E-01 -0.23990E-01 -0.32800E-01 -0.40049E-01 -0.46985E-01
 -0.54359E-01 -0.63032E-01 -0.73945E-01 -0.87478E-01 -0.10360E+00 -0.12257E+00
 -0.14368E+00 -0.16229E+00 -0.16970E+00 -0.15992E+00 -0.13810E+00 -0.12004E+00
 -0.12004E+00 -0.13810E+00 -0.15992E+00 -0.16970E+00 -0.16229E+00 -0.14368E+00
 -0.12257E+00 -0.10360E+00 -0.87478E-01 -0.73945E-01 -0.63032E-01 -0.54359E-01
 -0.46985E-01 -0.40050E-01 -0.32800E-01 -0.23990E-01 -0.12173E-01  0.27272E-02
  0.18237E-01  0.30155E-01  0.34977E-01  0.13557E-01  0.19725E-01  0.24231E-01
  0.24340E-01  0.18684E-01  0.81464E-02 -0.45656E-02 -0.16469E-01 -0.25942E-01
 -0.33242E-01 -0.39581E-01 -0.45894E-01 -0.52647E-01 -0.60464E-01 -0.70230E-01
 -0.82423E-01 -0.96931E-01 -0.11371E+00 -0.13262E+00 -0.15155E+00 -0.16557E+00
 -0.17010E+00 -0.16604E+00 -0.16047E+00 -0.16047E+00 -0.16604E+00 -0.17010E+00
 -0.16557E+00 -0.15155E+00 -0.13262E+00 -0.11371E+00 -0.96931E-01 -0.82423E-01
 -0.70230E-01 -0.60464E-01 -0.52647E-01 -0.45894E-01 -0.39581E-01 -0.33242E-01
 -0.25942E-01 -0.16469E-01 -0.45657E-02  0.81464E-02  0.18683E-01  0.24340E-01
  0.10473E-01  0.13637E-01  0.15020E-01  0.13060E-01  0.72709E-02 -0.14345E-02
 -0.11205E-01 -0.20198E-01 -0.27499E-01 -0.33412E-01 -0.38852E-01 -0.44486E-01
 -0.50559E-01 -0.57446E-01 -0.65892E-01 -0.76470E-01 -0.89120E-01 -0.10353E+00
 -0.11954E+00 -0.13640E+00 -0.15184E+00 -0.16294E+00 -0.16851E+00 -0.17016E+00
 -0.17016E+00 -0.16851E+00 -0.16294E+00 -0.15184E+00 -0.13640E+00 -0.11954E+00
 -0.10353E+00 -0.89120E-01 -0.76470E-01 -0.65892E-01 -0.57446E-01 -0.50560E-01
 -0.44486E-01 -0.38852E-01 -0.33412E-01 -0.27499E-01 -0.20198E-01 -0.11205E-01
 -0.14346E-02  0.72708E-02  0.13060E-01  0.60518E-02  0.68655E-02  0.61318E-02
  0.31038E-02 -0.21929E-02 -0.89869E-02 -0.16175E-01 -0.22796E-01 -0.28408E-01
 -0.33229E-01 -0.37869E-01 -0.42805E-01 -0.48183E-01 -0.54173E-01 -0.61293E-01
 -0.70127E-01 -0.80784E-01 -0.92893E-01 -0.10604E+00 -0.11976E+00 -0.13311E+00
 -0.14447E+00 -0.15238E+00 -0.15629E+00 -0.15629E+00 -0.15238E+00 -0.14447E+00
 -0.13311E+00 -0.11976E+00 -0.10604E+00 -0.92893E-01 -0.80784E-01 -0.70127E-01
 -0.61293E-01 -0.54173E-01 -0.48183E-01 -0.42805E-01 -0.37869E-01 -0.33229E-01
 -0.28408E-01 -0.22796E-01 -0.16175E-01 -0.89869E-02 -0.21929E-02  0.31037E-02
  0.16865E-02  0.95361E-03 -0.91933E-03 -0.42280E-02 -0.87595E-02 -0.13951E-01
 -0.19229E-01 -0.24192E-01 -0.28654E-01 -0.32700E-01 -0.36670E-01 -0.40920E-01
 -0.45605E-01 -0.50789E-01 -0.56732E-01 -0.63891E-01 -0.72522E-01 -0.82419E-01
 -0.93071E-01 -0.10392E+00 -0.11433E+00 -0.12342E+00 -0.13017E+00 -0.13375E+00
 -0.13375E+00 -0.13017E+00 -0.12342E+00 -0.11433E+00 -0.10392E+00 -0.93071E-01
 -0.82419E-01 -0.72522E-01 -0.63891E-01 -0.56733E-01 -0.50789E-01 -0.45605E-01
 -0.40920E-01 -0.36670E-01 -0.32700E-01 -0.28654E-01 -0.24192E-01 -0.19229E-01
 -0.13951E-01 -0.87595E-02 -0.42281E-02 -0.15869E-02 -0.31786E-02 -0.55106E-02
 -0.86923E-02 -0.12520E-01 -0.16615E-01 -0.20691E-01 -0.24625E-01 -0.28357E-01
 -0.31873E-01 -0.35308E-01 -0.38927E-01 -0.42938E-01 -0.47402E-01 -0.52392E-01
 -0.58138E-01 -0.64896E-01 -0.72667E-01 -0.81095E-01 -0.89620E-01 -0.97630E-01
 -0.10449E+00 -0.10956E+00 -0.11226E+00 -0.11226E+00 -0.10956E+00 -0.10449E+00
 -0.97630E-01 -0.89620E-01 -0.81095E-01 -0.72667E-01 -0.64896E-01 -0.58138E-01
 -0.52392E-01 -0.47402E-01 -0.42938E-01 -0.38928E-01 -0.35308E-01 -0.31873E-01
 -0.28357E-01 -0.24625E-01 -0.20691E-01 -0.16615E-01 -0.12520E-01 -0.86923E-02
 -0.34861E-02 -0.54824E-02 -0.79239E-02 -0.10869E-01 -0.14198E-01 -0.17662E-01
 -0.21079E-01 -0.24410E-01 -0.27658E-01 -0.30792E-01 -0.33828E-01 -0.36930E-01
 -0.40318E-01 -0.44116E-01 -0.48335E-01 -0.53013E-01 -0.58264E-01 -0.64155E-01
 -0.70541E-01 -0.77046E-01 -0.83166E-01 -0.88375E-01 -0.92184E-01 -0.94202E-01
 -0.94202E-01 -0.92185E-01 -0.88375E-01 -0.83166E-01 -0.77046E-01 -0.70541E-01
 -0.64155E-01 -0.58264E-01 -0.53013E-01 -0.48335E-01 -0.44116E-01 -0.40318E-01
 -0.36930E-01 -0.33828E-01 -0.30792E-01 -0.27658E-01 -0.24410E-01 -0.21079E-01
 -0.17662E-01 -0.14198E-01 -0.10869E-01 -0.42672E-02 -0.64263E-02 -0.88522E-02
 -0.11587E-01 -0.14596E-01 -0.17724E-01 -0.20801E-01 -0.23771E-01 -0.26665E-01
 -0.29495E-01 -0.32246E-01 -0.34979E-01 -0.37855E-01 -0.41035E-01 -0.44577E-01
 -0.48453E-01 -0.52634E-01 -0.57106E-01 -0.61807E-01 -0.66550E-01 -0.71031E-01
 -0.74875E-01 -0.77704E-01 -0.79207E-01 -0.79207E-01 -0.77704E-01 -0.74875E-01
 -0.71031E-01 -0.66550E-01 -0.61807E-01 -0.57107E-01 -0.52634E-01 -0.48453E-01
 -0.44577E-01 -0.41035E-01 -0.37855E-01 -0.34979E-01 -0.32246E-01 -0.29495E-01
 -0.26665E-01 -0.23771E-01 -0.20801E-01 -0.17724E-01 -0.14596E-01 -0.11587E-01
 -0.43172E-02 -0.65224E-02 -0.89076E-02 -0.11484E-01 -0.14270E-01 -0.17185E-01
 -0.20069E-01 -0.22817E-01 -0.25445E-01 -0.28017E-01 -0.30553E-01 -0.33050E-01
 -0.35566E-01 -0.38228E-01 -0.41147E-01 -0.44347E-01 -0.47758E-01 -0.51279E-01
 -0.54805E-01 -0.58223E-01 -0.61382E-01 -0.64074E-01 -0.66060E-01 -0.67119E-01
 -0.67119E-01 -0.66060E-01 -0.64074E-01 -0.61382E-01 -0.58224E-01 -0.54805E-01
 -0.51279E-01 -0.47758E-01 -0.44347E-01 -0.41147E-01 -0.38228E-01 -0.35566E-01
 -0.33050E-01 -0.30553E-01 -0.28017E-01 -0.25445E-01 -0.22817E-01 -0.20069E-01
 -0.17185E-01 -0.14270E-01 -0.11484E-01 -0.39102E-02 -0.60907E-02 -0.84319E-02
 -0.10895E-01 -0.13505E-01 -0.16241E-01 -0.18983E-01 -0.21595E-01 -0.24044E-01
 -0.26406E-01 -0.28750E-01 -0.31080E-01 -0.33373E-01 -0.35671E-01 -0.38073E-01
 -0.40656E-01 -0.43406E-01 -0.46215E-01 -0.48947E-01 -0.51483E-01 -0.53728E-01
 -0.55583E-01 -0.56926E-01 -0.57637E-01 -0.57637E-01 -0.56926E-01 -0.55583E-01
 -0.53728E-01 -0.51483E-01 -0.48947E-01 -0.46215E-01 -0.43406E-01 -0.40656E-01
 -0.38073E-01 -0.35671E-01 -0.33373E-01 -0.31080E-01 -0.28750E-01 -0.26406E-01
 -0.24044E-01 -0.21595E-01 -0.18983E-01 -0.16241E-01 -0.13505E-01 -0.10895E-01
 -0.31731E-02 -0.52654E-02 -0.75509E-02 -0.99409E-02 -0.12421E-01 -0.14999E-01
 -0.17614E-01 -0.20139E-01 -0.22493E-01 -0.24707E-01 -0.26873E-01 -0.29037E-01
 -0.31172E-01 -0.33248E-01 -0.35291E-01 -0.37363E-01 -0.39493E-01 -0.41632E-01
 -0.43679E-01 -0.45534E-01 -0.47120E-01 -0.48379E-01 -0.49258E-01 -0.49713E-01
 -0.49713E-01 -0.49258E-01 -0.48379E-01 -0.47120E-01 -0.45534E-01 -0.43679E-01
 -0.41632E-01 -0.39493E-01 -0.37363E-01 -0.35291E-01 -0.33248E-01 -0.31172E-01
 -0.29037E-01 -0.26873E-01 -0.24707E-01 -0.22493E-01 -0.20139E-01 -0.17614E-01
 -0.14999E-01 -0.12421E-01 -0.99409E-02 -0.21537E-02 -0.40978E-02 -0.63001E-02
 -0.86458E-02 -0.11056E-01 -0.13519E-01 -0.16019E-01 -0.18477E-01 -0.20792E-01
 -0.22934E-01 -0.24962E-01 -0.26953E-01 -0.28923E-01 -0.30830E-01 -0.32635E-01
 -0.34336E-01 -0.35942E-01 -0.37444E-01 -0.38800E-01 -0.39955E-01 -0.40863E-01
 -0.41505E-01 -0.41896E-01 -0.42073E-01 -0.42073E-01 -0.41896E-01 -0.41505E-01
 -0.40863E-01 -0.39955E-01 -0.38800E-01 -0.37444E-01 -0.35942E-01 -0.34336E-01
 -0.32635E-01 -0.30830E-01 -0.28923E-01 -0.26953E-01 -0.24962E-01 -0.22934E-01
 -0.20792E-01 -0.18477E-01 -0.16019E-01 -0.13519E-01 -0.11056E-01 -0.86458E-02
 -0.88773E-03 -0.26342E-02 -0.47140E-02 -0.70192E-02 -0.94128E-02 -0.11822E-01
 -0.14236E-01 -0.16628E-01 -0.18921E-01 -0.21047E-01 -0.23006E-01 -0.24857E-01
 -0.26646E-01 -0.28358E-01 -0.29943E-01 -0.31348E-01 -0.32542E-01 -0.33492E-01
 -0.34154E-01 -0.34481E-01 -0.34456E-01 -0.34146E-01 -0.33727E-01 -0.33432E-01
 -0.33432E-01 -0.33727E-01 -0.34146E-01 -0.34456E-01 -0.34481E-01 -0.34154E-01
 -0.33492E-01 -0.32542E-01 -0.31348E-01 -0.29943E-01 -0.28358E-01 -0.26646E-01
 -0.24857E-01 -0.23006E-01 -0.21047E-01 -0.18921E-01 -0.16628E-01 -0.14236E-01
 -0.11822E-01 -0.94128E-02 -0.70192E-02  0.60879E-03 -0.89332E-03 -0.28122E-02
 -0.50685E-02 -0.74840E-02 -0.99077E-02 -0.12287E-01 -0.14620E-01 -0.16876E-01
 -0.18993E-01 -0.20932E-01 -0.22706E-01 -0.24344E-01 -0.25840E-01 -0.27158E-01
 -0.28246E-01 -0.29038E-01 -0.29430E-01 -0.29279E-01 -0.28453E-01 -0.26950E-01
 -0.25018E-01 -0.23173E-01 -0.22035E-01 -0.22035E-01 -0.23173E-01 -0.25018E-01
 -0.26950E-01 -0.28453E-01 -0.29279E-01 -0.29430E-01 -0.29038E-01 -0.28246E-01
 -0.27159E-01 -0.25841E-01 -0.24344E-01 -0.22706E-01 -0.20932E-01 -0.18993E-01
 -0.16876E-01 -0.14620E-01 -0.12287E-01 -0.99077E-02 -0.74840E-02 -0.50684E-02
  0.24148E-02  0.12418E-02 -0.48732E-03 -0.27177E-02 -0.52242E-02 -0.77581E-02
 -0.10188E-01 -0.12501E-01 -0.14704E-01 -0.16776E-01 -0.18684E-01 -0.20412E-01
 -0.21947E-01 -0.23258E-01 -0.24301E-01 -0.25021E-01 -0.25309E-01 -0.24938E-01
 -0.23578E-01 -0.20961E-01 -0.17135E-01 -0.12670E-01 -0.86263E-02 -0.62037E-02
 -0.62037E-02 -0.86263E-02 -0.12670E-01 -0.17135E-01 -0.20961E-01 -0.23578E-01
 -0.24938E-01 -0.25309E-01 -0.25021E-01 -0.24301E-01 -0.23258E-01 -0.21947E-01
 -0.20412E-01 -0.18684E-01 -0.16776E-01 -0.14704E-01 -0.12501E-01 -0.10188E-01
 -0.77580E-02 -0.52241E-02 -0.27176E-02  0.46750E-02  0.40099E-02  0.25158E-02
  0.23424E-03 -0.25095E-02 -0.53133E-02 -0.79274E-02 -0.10301E-01 -0.12473E-01
 -0.14470E-01 -0.16295E-01 -0.17942E-01 -0.19381E-01 -0.20548E-01 -0.21360E-01
 -0.21710E-01 -0.21375E-01 -0.19935E-01 -0.16841E-01 -0.11722E-01 -0.47933E-02
  0.29003E-02  0.96383E-02  0.13596E-01  0.13596E-01  0.96383E-02  0.29004E-02
 -0.47933E-02 -0.11722E-01 -0.16841E-01 -0.19935E-01 -0.21375E-01 -0.21710E-01
 -0.21360E-01 -0.20548E-01 -0.19381E-01 -0.17942E-01 -0.16295E-01 -0.14470E-01
 -0.12473E-01 -0.10301E-01 -0.79273E-02 -0.53133E-02 -0.25094E-02  0.23435E-03
  0.72984E-02  0.74246E-02  0.62899E-02  0.38989E-02  0.74367E-03 -0.25259E-02
 -0.54802E-02 -0.80184E-02 -0.10216E-01 -0.12151E-01 -0.13866E-01 -0.15378E-01
 -0.16674E-01 -0.17689E-01 -0.18301E-01 -0.18303E-01 -0.17293E-01 -0.14612E-01
 -0.95294E-02 -0.17016E-02  0.83420E-02  0.19032E-01  0.28100E-01  0.33321E-01
  0.33321E-01  0.28100E-01  0.19032E-01  0.83421E-02 -0.17015E-02 -0.95294E-02
 -0.14612E-01 -0.17293E-01 -0.18303E-01 -0.18301E-01 -0.17689E-01 -0.16674E-01
 -0.15378E-01 -0.13866E-01 -0.12151E-01 -0.10216E-01 -0.80183E-02 -0.54802E-02
 -0.25259E-02  0.74379E-03  0.38991E-02  0.95812E-02  0.10792E-01  0.10264E-01
  0.78754E-02  0.42862E-02  0.46398E-03 -0.29123E-02 -0.56689E-02 -0.79318E-02
 -0.98450E-02 -0.11474E-01 -0.12845E-01 -0.13962E-01 -0.14783E-01 -0.15175E-01
 -0.14833E-01 -0.13179E-01 -0.93722E-02 -0.26352E-02  0.71777E-02  0.19139E-01
  0.31296E-01  0.41226E-01  0.46801E-01  0.46801E-01  0.41226E-01  0.31296E-01
  0.19139E-01  0.71777E-02 -0.26351E-02 -0.93722E-02 -0.13179E-01 -0.14833E-01
 -0.15175E-01 -0.14784E-01 -0.13962E-01 -0.12845E-01 -0.11474E-01 -0.98450E-02
 -0.79318E-02 -0.56689E-02 -0.29123E-02  0.46407E-03  0.42863E-02  0.78755E-02
  0.10297E-01  0.12714E-01  0.13105E-01  0.11089E-01  0.73760E-02  0.32044E-02
 -0.47483E-03 -0.33769E-02 -0.56650E-02 -0.75527E-02 -0.91274E-02 -0.10398E-01
 -0.11361E-01 -0.11988E-01 -0.12144E-01 -0.11476E-01 -0.93160E-02 -0.47955E-02
  0.27126E-02  0.13008E-01  0.24801E-01  0.36062E-01  0.44758E-01  0.49448E-01
  0.49448E-01  0.44758E-01  0.36062E-01  0.24801E-01  0.13008E-01  0.27126E-02
 -0.47955E-02 -0.93160E-02 -0.11476E-01 -0.12144E-01 -0.11988E-01 -0.11361E-01
 -0.10398E-01 -0.91274E-02 -0.75527E-02 -0.56649E-02 -0.33769E-02 -0.47477E-03
  0.32045E-02  0.73761E-02  0.11089E-01 -0.86376E-02 -0.48261E-02 -0.53541E-03
  0.26474E-02  0.39314E-02  0.36056E-02  0.24972E-02  0.12722E-02  0.17691E-03
 -0.78922E-03 -0.16422E-02 -0.23461E-02 -0.28485E-02 -0.30875E-02 -0.29325E-02
 -0.21228E-02 -0.32649E-03  0.25727E-02  0.60707E-02  0.89335E-02  0.97675E-02
  0.80759E-02  0.49351E-02  0.24977E-02  0.24977E-02  0.49351E-02  0.80759E-02
  0.97675E-02  0.89335E-02  0.60707E-02  0.25727E-02 -0.32648E-03 -0.21228E-02
 -0.29325E-02 -0.30875E-02 -0.28485E-02 -0.23461E-02 -0.16422E-02 -0.78920E-03
  0.17692E-03  0.12722E-02  0.24972E-02  0.36056E-02  0.39314E-02  0.26475E-02
 -0.37583E-02  0.15157E-03  0.38225E-02  0.58050E-02  0.56756E-02  0.40956E-02
  0.20801E-02  0.27292E-03 -0.12022E-02 -0.24494E-02 -0.35261E-02 -0.43990E-02
 -0.50148E-02 -0.53156E-02 -0.51643E-02 -0.42515E-02 -0.21294E-02  0.14954E-02
  0.62923E-02  0.11086E-01  0.14331E-01  0.15150E-01  0.14104E-01  0.12861E-01
  0.12861E-01  0.14104E-01  0.15150E-01  0.14331E-01  0.11086E-01  0.62923E-02
  0.14954E-02 -0.21294E-02 -0.42515E-02 -0.51643E-02 -0.53156E-02 -0.50148E-02
 -0.43990E-02 -0.35261E-02 -0.24494E-02 -0.12022E-02  0.27292E-03  0.20801E-02
  0.40956E-02  0.56755E-02  0.58049E-02  0.14715E-02  0.49032E-02  0.74069E-02
  0.78973E-02  0.63780E-02  0.37645E-02  0.10840E-02 -0.11452E-02 -0.29204E-02
 -0.43994E-02 -0.56491E-02 -0.66449E-02 -0.73536E-02 -0.77387E-02 -0.76705E-02
 -0.68137E-02 -0.46215E-02 -0.58713E-03  0.52716E-02  0.12061E-01  0.18263E-01
  0.22583E-01  0.24738E-01  0.25422E-01  0.25422E-01  0.24738E-01  0.22583E-01
  0.18263E-01  0.12061E-01  0.52716E-02 -0.58714E-03 -0.46215E-02 -0.68137E-02
 -0.76705E-02 -0.77387E-02 -0.73536E-02 -0.66449E-02 -0.56491E-02 -0.43994E-02
 -0.29204E-02 -0.11452E-02  0.10840E-02  0.37644E-02  0.63779E-02  0.78972E-02
  0.51188E-02  0.75765E-02  0.87303E-02  0.79349E-02  0.55021E-02  0.23805E-02
 -0.56174E-03 -0.29733E-02 -0.49181E-02 -0.65443E-02 -0.79092E-02 -0.90086E-02
 -0.98383E-02 -0.10374E-01 -0.10490E-01 -0.98553E-02 -0.78913E-02 -0.39391E-02
  0.23116E-02  0.10378E-01  0.18958E-01  0.26474E-01  0.31776E-01  0.34431E-01
  0.34431E-01  0.31776E-01  0.26474E-01  0.18958E-01  0.10378E-01  0.23115E-02
 -0.39391E-02 -0.78913E-02 -0.98553E-02 -0.10490E-01 -0.10374E-01 -0.98383E-02
 -0.90086E-02 -0.79092E-02 -0.65443E-02 -0.49181E-02 -0.29734E-02 -0.56179E-03