       #
       # Generated by the Wannier90 code http://www.wannier.org
       # On 29Dec2023 at 23:55:10 
       #
CRYSTAL
PRIMVEC
   4.1863376   0.0000000   0.0000000
   0.0000000   4.1863376   0.0000000
   0.0000000   0.0000000   4.1863376
CONVVEC
   4.1863376   0.0000000   0.0000000
   0.0000000   4.1863376   0.0000000
   0.0000000   0.0000000   4.1863376
PRIMCOORD
     8  1
O       0.0000000   0.0000000   0.0000000
O       0.0000000   2.0931688   2.0931688
O       2.0931688   0.0000000   2.0931688
O       2.0931688   2.0931688   0.0000000
Ni      0.0000000   0.0000000   2.0931688
Ni      2.0931688   0.0000000   0.0000000
Ni      0.0000000   2.0931688   0.0000000
Ni      2.0931688   2.0931688   2.0931688


BEGIN_BLOCK_DATAGRID_3D
3D_field
BEGIN_DATAGRID_3D_UNKNOWN
    45    45    45
   -0.093030   -0.093030   -0.093030
   4.0933079   0.0000000   0.0000000
   0.0000000   4.0933079   0.0000000
   0.0000000   0.0000000   4.0933079
 -0.89607E-02 -0.42033E-02  0.16546E-02  0.63459E-02  0.84817E-02  0.82010E-02
  0.65868E-02  0.46561E-02  0.28662E-02  0.12769E-02 -0.12426E-03 -0.13117E-02
 -0.22675E-02 -0.29848E-02 -0.34060E-02 -0.34083E-02 -0.28825E-02 -0.18354E-02
 -0.42419E-03  0.10997E-02  0.24930E-02  0.35957E-02  0.43397E-02  0.47109E-02
  0.47108E-02  0.43393E-02  0.35953E-02  0.24926E-02  0.10994E-02 -0.42437E-03
 -0.18355E-02 -0.28826E-02 -0.34082E-02 -0.34060E-02 -0.29848E-02 -0.22675E-02
 -0.13117E-02 -0.12433E-03  0.12767E-02  0.28660E-02  0.46558E-02  0.65864E-02
  0.82005E-02  0.84810E-02  0.63452E-02 -0.81080E-02 -0.29367E-02  0.31902E-02
  0.78782E-02  0.97500E-02  0.90741E-02  0.70831E-02  0.48778E-02  0.29185E-02
  0.12283E-02 -0.23947E-03 -0.14763E-02 -0.24700E-02 -0.32136E-02 -0.36413E-02
 -0.36107E-02 -0.29787E-02 -0.17053E-02  0.10166E-03  0.22176E-02  0.43693E-02
  0.62888E-02  0.77362E-02  0.85171E-02  0.85170E-02  0.77359E-02  0.62884E-02
  0.43689E-02  0.22173E-02  0.10148E-03 -0.17054E-02 -0.29788E-02 -0.36107E-02
 -0.36413E-02 -0.32136E-02 -0.24700E-02 -0.14763E-02 -0.23954E-03  0.12281E-02
  0.29183E-02  0.48775E-02  0.70827E-02  0.90736E-02  0.97493E-02  0.78775E-02
 -0.54829E-02 -0.54830E-03  0.49777E-02  0.89395E-02  0.10204E-01  0.91560E-02
  0.69981E-02  0.47360E-02  0.27541E-02  0.10441E-02 -0.44675E-03 -0.17121E-02
 -0.27415E-02 -0.35252E-02 -0.39920E-02 -0.39912E-02 -0.33611E-02 -0.20235E-02
 -0.35629E-04  0.24141E-02  0.50399E-02  0.74961E-02  0.94162E-02  0.10475E-01
  0.10475E-01  0.94159E-02  0.74957E-02  0.50396E-02  0.24139E-02 -0.35779E-04
 -0.20236E-02 -0.33611E-02 -0.39911E-02 -0.39919E-02 -0.35252E-02 -0.27415E-02
 -0.17121E-02 -0.44682E-03  0.10439E-02  0.27539E-02  0.47357E-02  0.69977E-02
  0.91555E-02  0.10203E-01  0.89388E-02 -0.21784E-02  0.19512E-02  0.62505E-02
  0.90687E-02  0.96427E-02  0.84010E-02  0.63435E-02  0.42439E-02  0.23708E-02
  0.71041E-03 -0.76312E-03 -0.20314E-02 -0.30823E-02 -0.39033E-02 -0.44241E-02
 -0.45036E-02 -0.39849E-02 -0.27722E-02 -0.88190E-03  0.15378E-02  0.42146E-02
  0.67797E-02  0.88176E-02  0.99513E-02  0.99512E-02  0.88174E-02  0.67794E-02
  0.42144E-02  0.15376E-02 -0.88200E-03 -0.27722E-02 -0.39849E-02 -0.45035E-02
 -0.44241E-02 -0.39032E-02 -0.30823E-02 -0.20314E-02 -0.76318E-03  0.71031E-03
  0.23706E-02  0.42437E-02  0.63432E-02  0.84006E-02  0.96422E-02  0.90682E-02
  0.56611E-03  0.36176E-02  0.65227E-02  0.82084E-02  0.82616E-02  0.70606E-02
  0.53060E-02  0.34985E-02  0.18062E-02  0.24160E-03 -0.11765E-02 -0.24145E-02
 -0.34599E-02 -0.42990E-02 -0.48706E-02 -0.50593E-02 -0.47354E-02 -0.38059E-02
 -0.22610E-02 -0.20812E-03  0.21196E-02  0.43856E-02  0.62027E-02  0.72186E-02
  0.72185E-02  0.62026E-02  0.43854E-02  0.21195E-02 -0.20823E-03 -0.22611E-02
 -0.38059E-02 -0.47354E-02 -0.50593E-02 -0.48705E-02 -0.42990E-02 -0.34598E-02
 -0.24145E-02 -0.11765E-02  0.24152E-03  0.18060E-02  0.34983E-02  0.53057E-02
  0.70603E-02  0.82613E-02  0.82081E-02  0.21104E-02  0.41371E-02  0.58758E-02
  0.67315E-02  0.65257E-02  0.55214E-02  0.41276E-02  0.26241E-02  0.11245E-02
 -0.31644E-03 -0.16428E-02 -0.28160E-02 -0.38262E-02 -0.46606E-02 -0.52711E-02
 -0.55771E-02 -0.54859E-02 -0.49205E-02 -0.38579E-02 -0.23693E-02 -0.63455E-03
  0.10789E-02  0.24638E-02  0.32412E-02  0.32411E-02  0.24637E-02  0.10788E-02
 -0.63462E-03 -0.23693E-02 -0.38579E-02 -0.49205E-02 -0.54858E-02 -0.55770E-02
 -0.52711E-02 -0.46605E-02 -0.38262E-02 -0.28160E-02 -0.16428E-02 -0.31650E-03
  0.11244E-02  0.26239E-02  0.41274E-02  0.55212E-02  0.65255E-02  0.67313E-02
  0.25659E-02  0.38144E-02  0.47722E-02  0.51473E-02  0.48705E-02  0.40819E-02
  0.29824E-02  0.17222E-02  0.40078E-03 -0.89626E-03 -0.21013E-02 -0.31842E-02
 -0.41396E-02 -0.49536E-02 -0.55913E-02 -0.60039E-02 -0.61335E-02 -0.59219E-02
 -0.53429E-02 -0.44412E-02 -0.33439E-02 -0.22382E-02 -0.13350E-02 -0.82487E-03
 -0.82488E-03 -0.13350E-02 -0.22383E-02 -0.33439E-02 -0.44411E-02 -0.53429E-02
 -0.59219E-02 -0.61334E-02 -0.60038E-02 -0.55912E-02 -0.49535E-02 -0.41395E-02
 -0.31842E-02 -0.21013E-02 -0.89628E-03  0.40072E-03  0.17221E-02  0.29823E-02
  0.40818E-02  0.48704E-02  0.51472E-02  0.24093E-02  0.31487E-02  0.36538E-02
  0.37829E-02  0.34985E-02  0.28555E-02  0.19458E-02  0.86495E-03 -0.28955E-03
 -0.14290E-02 -0.24989E-02 -0.34831E-02 -0.43766E-02 -0.51623E-02 -0.58148E-02
 -0.63079E-02 -0.66080E-02 -0.66730E-02 -0.64800E-02 -0.60583E-02 -0.54922E-02
 -0.48981E-02 -0.44016E-02 -0.41171E-02 -0.41171E-02 -0.44016E-02 -0.48981E-02
 -0.54922E-02 -0.60583E-02 -0.64800E-02 -0.66730E-02 -0.66080E-02 -0.63079E-02
 -0.58147E-02 -0.51623E-02 -0.43766E-02 -0.34831E-02 -0.24989E-02 -0.14290E-02
 -0.28958E-03  0.86490E-03  0.19457E-02  0.28554E-02  0.34984E-02  0.37828E-02
  0.20443E-02  0.24688E-02  0.27154E-02  0.27048E-02  0.24058E-02  0.18357E-02
  0.10458E-02  0.11143E-03 -0.88229E-03 -0.18667E-02 -0.28088E-02 -0.37006E-02
 -0.45320E-02 -0.52823E-02 -0.59326E-02 -0.64701E-02 -0.68750E-02 -0.71170E-02
 -0.71794E-02 -0.70831E-02 -0.68813E-02 -0.66385E-02 -0.64202E-02 -0.62895E-02
 -0.62895E-02 -0.64201E-02 -0.66384E-02 -0.68813E-02 -0.70830E-02 -0.71793E-02
 -0.71169E-02 -0.68749E-02 -0.64701E-02 -0.59325E-02 -0.52822E-02 -0.45320E-02
 -0.37005E-02 -0.28088E-02 -0.18667E-02 -0.88229E-03  0.11141E-03  0.10458E-02
  0.18357E-02  0.24058E-02  0.27047E-02  0.16530E-02  0.18763E-02  0.19603E-02
  0.18533E-02  0.15314E-02  0.10036E-02  0.30908E-03 -0.49304E-03 -0.13416E-02
 -0.21937E-02 -0.30300E-02 -0.38407E-02 -0.46088E-02 -0.53134E-02 -0.59414E-02
 -0.64870E-02 -0.69367E-02 -0.72687E-02 -0.74722E-02 -0.75621E-02 -0.75696E-02
 -0.75269E-02 -0.74657E-02 -0.74216E-02 -0.74216E-02 -0.74657E-02 -0.75269E-02
 -0.75696E-02 -0.75620E-02 -0.74722E-02 -0.72686E-02 -0.69366E-02 -0.64869E-02
 -0.59413E-02 -0.53133E-02 -0.46088E-02 -0.38406E-02 -0.30299E-02 -0.21936E-02
 -0.13416E-02 -0.49303E-03  0.30908E-03  0.10036E-02  0.15314E-02  0.18533E-02
  0.12832E-02  0.13735E-02  0.13509E-02  0.11805E-02  0.84732E-03  0.36143E-03
 -0.24613E-03 -0.93501E-03 -0.16682E-02 -0.24193E-02 -0.31712E-02 -0.39073E-02
 -0.46079E-02 -0.52564E-02 -0.58448E-02 -0.63688E-02 -0.68176E-02 -0.71759E-02
 -0.74372E-02 -0.76110E-02 -0.77146E-02 -0.77639E-02 -0.77758E-02 -0.77725E-02
 -0.77725E-02 -0.77758E-02 -0.77639E-02 -0.77146E-02 -0.76109E-02 -0.74371E-02
 -0.71758E-02 -0.68175E-02 -0.63687E-02 -0.58447E-02 -0.52563E-02 -0.46078E-02
 -0.39072E-02 -0.31712E-02 -0.24193E-02 -0.16681E-02 -0.93498E-03 -0.24611E-03
  0.36144E-03  0.84733E-03  0.11805E-02  0.95104E-03  0.95893E-03  0.87488E-03
  0.67401E-03  0.34708E-03 -0.95694E-04 -0.63149E-03 -0.12351E-02 -0.18842E-02
 -0.25578E-02 -0.32351E-02 -0.38963E-02 -0.45253E-02 -0.51114E-02 -0.56479E-02
 -0.61279E-02 -0.65419E-02 -0.68808E-02 -0.71423E-02 -0.73326E-02 -0.74616E-02
 -0.75398E-02 -0.75788E-02 -0.75927E-02 -0.75927E-02 -0.75787E-02 -0.75398E-02
 -0.74616E-02 -0.73325E-02 -0.71423E-02 -0.68808E-02 -0.65418E-02 -0.61278E-02
 -0.56478E-02 -0.51113E-02 -0.45252E-02 -0.38962E-02 -0.32350E-02 -0.25577E-02
 -0.18841E-02 -0.12351E-02 -0.63145E-03 -0.95664E-04  0.34711E-03  0.67403E-03
  0.66717E-03  0.63398E-03  0.52583E-03  0.32102E-03  0.11498E-04 -0.39409E-03
 -0.87799E-03 -0.14218E-02 -0.20071E-02 -0.26126E-02 -0.32162E-02 -0.38011E-02
 -0.43576E-02 -0.48784E-02 -0.53534E-02 -0.57720E-02 -0.61271E-02 -0.64171E-02
 -0.66439E-02 -0.68119E-02 -0.69283E-02 -0.70029E-02 -0.70461E-02 -0.70658E-02
 -0.70658E-02 -0.70461E-02 -0.70029E-02 -0.69282E-02 -0.68119E-02 -0.66439E-02
 -0.64170E-02 -0.61271E-02 -0.57720E-02 -0.53534E-02 -0.48783E-02 -0.43576E-02
 -0.38010E-02 -0.32161E-02 -0.26126E-02 -0.20070E-02 -0.14217E-02 -0.87794E-03
 -0.39405E-03  0.11531E-04  0.32104E-03  0.42816E-03  0.38868E-03  0.28711E-03
  0.99294E-04 -0.18522E-03 -0.55938E-03 -0.10059E-02 -0.15053E-02 -0.20370E-02
 -0.25786E-02 -0.31108E-02 -0.36228E-02 -0.41094E-02 -0.45624E-02 -0.49678E-02
 -0.53140E-02 -0.55991E-02 -0.58282E-02 -0.60054E-02 -0.61324E-02 -0.62146E-02
 -0.62639E-02 -0.62927E-02 -0.63068E-02 -0.63068E-02 -0.62927E-02 -0.62639E-02
 -0.62146E-02 -0.61324E-02 -0.60054E-02 -0.58282E-02 -0.55990E-02 -0.53139E-02
 -0.49677E-02 -0.45623E-02 -0.41094E-02 -0.36228E-02 -0.31107E-02 -0.25785E-02
 -0.20369E-02 -0.15053E-02 -0.10059E-02 -0.55933E-03 -0.18518E-03  0.99323E-04
  0.21797E-03  0.20880E-03  0.14741E-03  0.14310E-06 -0.24961E-03 -0.59528E-03
 -0.10147E-02 -0.14810E-02 -0.19681E-02 -0.24540E-02 -0.29242E-02 -0.33725E-02
 -0.37937E-02 -0.41774E-02 -0.45093E-02 -0.47819E-02 -0.49986E-02 -0.51662E-02
 -0.52859E-02 -0.53555E-02 -0.53808E-02 -0.53789E-02 -0.53691E-02 -0.53627E-02
 -0.53627E-02 -0.53691E-02 -0.53789E-02 -0.53808E-02 -0.53555E-02 -0.52859E-02
 -0.51662E-02 -0.49986E-02 -0.47818E-02 -0.45092E-02 -0.41773E-02 -0.37937E-02
 -0.33724E-02 -0.29242E-02 -0.24539E-02 -0.19680E-02 -0.14809E-02 -0.10147E-02
 -0.59523E-03 -0.24957E-03  0.17330E-06  0.89147E-05  0.85879E-04  0.11853E-03
  0.48129E-04 -0.15529E-03 -0.48164E-03 -0.89302E-03 -0.13453E-02 -0.18037E-02
 -0.22480E-02 -0.26700E-02 -0.30655E-02 -0.34272E-02 -0.37437E-02 -0.40055E-02
 -0.42111E-02 -0.43642E-02 -0.44655E-02 -0.45102E-02 -0.44965E-02 -0.44365E-02
 -0.43566E-02 -0.42861E-02 -0.42461E-02 -0.42461E-02 -0.42861E-02 -0.43566E-02
 -0.44365E-02 -0.44965E-02 -0.45102E-02 -0.44655E-02 -0.43642E-02 -0.42111E-02
 -0.40055E-02 -0.37437E-02 -0.34271E-02 -0.30654E-02 -0.26699E-02 -0.22480E-02
 -0.18036E-02 -0.13452E-02 -0.89296E-03 -0.48158E-03 -0.15525E-03  0.48157E-04
 -0.24620E-03  0.14130E-04  0.23591E-03  0.30329E-03  0.15912E-03 -0.17362E-03
 -0.61896E-03 -0.10962E-02 -0.15541E-02 -0.19764E-02 -0.23642E-02 -0.27168E-02
 -0.30256E-02 -0.32813E-02 -0.34809E-02 -0.36260E-02 -0.37131E-02 -0.37324E-02
 -0.36769E-02 -0.35540E-02 -0.33884E-02 -0.32157E-02 -0.30736E-02 -0.29935E-02
 -0.29935E-02 -0.30737E-02 -0.32158E-02 -0.33884E-02 -0.35541E-02 -0.36770E-02
 -0.37325E-02 -0.37131E-02 -0.36260E-02 -0.34809E-02 -0.32812E-02 -0.30256E-02
 -0.27168E-02 -0.23641E-02 -0.19764E-02 -0.15541E-02 -0.10961E-02 -0.61890E-03
 -0.17357E-03  0.15916E-03  0.30331E-03 -0.60645E-03 -0.15474E-04  0.54018E-03
  0.83805E-03  0.77202E-03  0.39135E-03 -0.15631E-03 -0.72275E-03 -0.12260E-02
 -0.16535E-02 -0.20218E-02 -0.23400E-02 -0.26029E-02 -0.28056E-02 -0.29502E-02
 -0.30359E-02 -0.30491E-02 -0.29726E-02 -0.28046E-02 -0.25656E-02 -0.22886E-02
 -0.20117E-02 -0.17808E-02 -0.16470E-02 -0.16470E-02 -0.17809E-02 -0.20118E-02
 -0.22887E-02 -0.25657E-02 -0.28047E-02 -0.29726E-02 -0.30491E-02 -0.30359E-02
 -0.29502E-02 -0.28055E-02 -0.26029E-02 -0.23400E-02 -0.20217E-02 -0.16534E-02
 -0.12259E-02 -0.72269E-03 -0.15625E-03  0.39139E-03  0.77204E-03  0.83805E-03
 -0.10989E-02 -0.16320E-04  0.10326E-02  0.16664E-02  0.17052E-02  0.12355E-02
  0.51017E-03 -0.22139E-03 -0.82643E-03 -0.12920E-02 -0.16564E-02 -0.19476E-02
 -0.21711E-02 -0.23284E-02 -0.24233E-02 -0.24500E-02 -0.23882E-02 -0.22213E-02
 -0.19548E-02 -0.16098E-02 -0.12082E-02 -0.78198E-03 -0.40074E-03 -0.16879E-03
 -0.16883E-03 -0.40086E-03 -0.78214E-03 -0.12084E-02 -0.16100E-02 -0.19550E-02
 -0.22215E-02 -0.23883E-02 -0.24500E-02 -0.24233E-02 -0.23284E-02 -0.21711E-02
 -0.19475E-02 -0.16563E-02 -0.12919E-02 -0.82636E-03 -0.22133E-03  0.51022E-03
  0.12356E-02  0.17052E-02  0.16663E-02 -0.16565E-02 -0.54645E-05  0.16142E-02
  0.26396E-02  0.28042E-02  0.22323E-02  0.12931E-02  0.35355E-03 -0.38894E-03
 -0.91398E-03 -0.12830E-02 -0.15504E-02 -0.17398E-02 -0.18598E-02 -0.19131E-02
 -0.18892E-02 -0.17678E-02 -0.15382E-02 -0.12035E-02 -0.76042E-03 -0.19494E-03
  0.46812E-03  0.11032E-02  0.15034E-02  0.15034E-02  0.11031E-02  0.46786E-03
 -0.19521E-03 -0.76068E-03 -0.12037E-02 -0.15384E-02 -0.17679E-02 -0.18892E-02
 -0.19132E-02 -0.18599E-02 -0.17398E-02 -0.15504E-02 -0.12829E-02 -0.91393E-03
 -0.38888E-03  0.35360E-03  0.12932E-02  0.22323E-02  0.28041E-02  0.26395E-02
 -0.20898E-02  0.72120E-06  0.20645E-02  0.34026E-02  0.36807E-02  0.30461E-02
  0.19519E-02  0.85464E-03  0.69989E-05 -0.55893E-03 -0.92135E-03 -0.11600E-02
 -0.13173E-02 -0.14086E-02 -0.14334E-02 -0.13783E-02 -0.12276E-02 -0.97444E-03
 -0.60654E-03 -0.77100E-04  0.67394E-03  0.16209E-02  0.25608E-02  0.31613E-02
  0.31612E-02  0.25605E-02  0.16205E-02  0.67354E-03 -0.77460E-04 -0.60683E-03
 -0.97468E-03 -0.12277E-02 -0.13784E-02 -0.14335E-02 -0.14086E-02 -0.13173E-02
 -0.11599E-02 -0.92131E-03 -0.55888E-03  0.70483E-05  0.85467E-03  0.19519E-02
  0.30461E-02  0.36806E-02  0.34024E-02 -0.21425E-02 -0.33643E-05  0.21161E-02
  0.35095E-02  0.38352E-02  0.32356E-02  0.21636E-02  0.10829E-02  0.25647E-03
 -0.27635E-03 -0.59535E-03 -0.78982E-03 -0.91211E-03 -0.98026E-03 -0.99076E-03
 -0.92956E-03 -0.78564E-03 -0.55243E-03 -0.19933E-03  0.35561E-03  0.12013E-02
  0.23057E-02  0.34151E-02  0.41260E-02  0.41259E-02  0.34147E-02  0.23051E-02
  0.12008E-02  0.35514E-03 -0.19970E-03 -0.55272E-03 -0.78586E-03 -0.92971E-03
 -0.99086E-03 -0.98031E-03 -0.91213E-03 -0.78981E-03 -0.59532E-03 -0.27631E-03
  0.25651E-03  0.10829E-02  0.21636E-02  0.32355E-02  0.38351E-02  0.35093E-02
 -0.16352E-02 -0.87590E-05  0.16060E-02  0.26762E-02  0.29418E-02  0.25065E-02
  0.17098E-02  0.90286E-03  0.28843E-03 -0.99950E-04 -0.32284E-03 -0.45199E-03
 -0.53139E-03 -0.57574E-03 -0.58070E-03 -0.53510E-03 -0.43199E-03 -0.26467E-03
  0.73510E-06  0.44375E-03  0.11438E-02  0.20699E-02  0.30026E-02  0.35998E-02
  0.35996E-02  0.30020E-02  0.20692E-02  0.11431E-02  0.44318E-03  0.28959E-06
 -0.26501E-03 -0.43224E-03 -0.53527E-03 -0.58082E-03 -0.57580E-03 -0.53142E-03
 -0.45198E-03 -0.32281E-03 -0.99914E-04  0.28846E-03  0.90287E-03  0.17098E-02
  0.25064E-02  0.29416E-02  0.26759E-02 -0.61478E-03 -0.49293E-05  0.60113E-03
  0.10043E-02  0.11070E-02  0.94721E-03  0.65143E-03  0.35106E-03  0.12276E-03
 -0.20256E-04 -0.10068E-03 -0.14613E-03 -0.17387E-03 -0.18956E-03 -0.19125E-03
 -0.17458E-03 -0.13708E-03 -0.75711E-04  0.24359E-04  0.19613E-03  0.47130E-03
  0.83666E-03  0.12045E-02  0.14396E-02  0.14394E-02  0.12038E-02  0.83584E-03
  0.47051E-03  0.19548E-03  0.23872E-04 -0.76072E-04 -0.13734E-03 -0.17476E-03
 -0.19137E-03 -0.18963E-03 -0.17391E-03 -0.14613E-03 -0.10066E-03 -0.20223E-04
  0.12279E-03  0.35106E-03  0.65137E-03  0.94706E-03  0.11067E-02  0.10040E-02
  0.61456E-03  0.49827E-05 -0.60084E-03 -0.10038E-02 -0.11066E-02 -0.94693E-03
 -0.65128E-03 -0.35103E-03 -0.12279E-03  0.20201E-04  0.10063E-03  0.14611E-03
  0.17390E-03  0.18965E-03  0.19142E-03  0.17486E-03  0.13750E-03  0.76306E-04
 -0.23548E-04 -0.19507E-03 -0.47004E-03 -0.83536E-03 -0.12034E-02 -0.14390E-02
 -0.14392E-02 -0.12040E-02 -0.83618E-03 -0.47083E-03 -0.19572E-03 -0.24036E-04
  0.75944E-04  0.13723E-03  0.17467E-03  0.19129E-03  0.18958E-03  0.17387E-03
  0.14611E-03  0.10065E-03  0.20233E-04 -0.12276E-03 -0.35103E-03 -0.65134E-03
 -0.94707E-03 -0.11068E-02 -0.10041E-02  0.16350E-02  0.87651E-05 -0.16058E-02
 -0.26759E-02 -0.29415E-02 -0.25063E-02 -0.17097E-02 -0.90285E-03 -0.28847E-03
  0.99887E-04  0.32278E-03  0.45196E-03  0.53141E-03  0.57581E-03  0.58086E-03
  0.53536E-03  0.43238E-03  0.26523E-03  0.11829E-07 -0.44279E-03 -0.11426E-02
 -0.20687E-02 -0.30016E-02 -0.35991E-02 -0.35993E-02 -0.30021E-02 -0.20695E-02
 -0.11433E-02 -0.44337E-03 -0.43614E-06  0.26489E-03  0.43213E-03  0.53519E-03
  0.58074E-03  0.57574E-03  0.53138E-03  0.45196E-03  0.32280E-03  0.99920E-04
 -0.28844E-03 -0.90285E-03 -0.17098E-02 -0.25065E-02 -0.29417E-02 -0.26761E-02
  0.21423E-02  0.33032E-05 -0.21160E-02 -0.35093E-02 -0.38350E-02 -0.32355E-02
 -0.21636E-02 -0.10829E-02 -0.25654E-03  0.27628E-03  0.59528E-03  0.78978E-03
  0.91211E-03  0.98031E-03  0.99089E-03  0.92978E-03  0.78597E-03  0.55290E-03
  0.19996E-03 -0.35480E-03 -0.12004E-02 -0.23047E-02 -0.34142E-02 -0.41254E-02
 -0.41256E-02 -0.34147E-02 -0.23052E-02 -0.12009E-02 -0.35528E-03  0.19958E-03
  0.55261E-03  0.78575E-03  0.92962E-03  0.99079E-03  0.98025E-03  0.91208E-03
  0.78979E-03  0.59531E-03  0.27631E-03 -0.25650E-03 -0.10829E-02 -0.21636E-02
 -0.32355E-02 -0.38352E-02 -0.35095E-02  0.20896E-02 -0.83309E-06 -0.20645E-02
 -0.34025E-02 -0.36806E-02 -0.30461E-02 -0.19519E-02 -0.85471E-03 -0.70897E-05
  0.55883E-03  0.92126E-03  0.11599E-02  0.13172E-02  0.14086E-02  0.14335E-02
  0.13785E-02  0.12278E-02  0.97482E-03  0.60704E-03  0.77732E-04 -0.67320E-03
 -0.16201E-02 -0.25601E-02 -0.31608E-02 -0.31609E-02 -0.25604E-02 -0.16205E-02
 -0.67361E-03  0.77368E-04  0.60673E-03  0.97458E-03  0.12276E-02  0.13784E-02
  0.14334E-02  0.14086E-02  0.13172E-02  0.11599E-02  0.92129E-03  0.55888E-03
 -0.70472E-05 -0.85468E-03 -0.19519E-02 -0.30461E-02 -0.36807E-02 -0.34027E-02
  0.16564E-02  0.53410E-05 -0.16143E-02 -0.26396E-02 -0.28042E-02 -0.22323E-02
 -0.12932E-02 -0.35365E-03  0.38883E-03  0.91387E-03  0.12829E-02  0.15503E-02
  0.17397E-02  0.18598E-02  0.19132E-02  0.18893E-02  0.17680E-02  0.15385E-02
  0.12039E-02  0.76087E-03  0.19546E-03 -0.46757E-03 -0.11027E-02 -0.15030E-02
 -0.15031E-02 -0.11029E-02 -0.46783E-03  0.19518E-03  0.76060E-03  0.12036E-02
  0.15383E-02  0.17678E-02  0.18892E-02  0.19131E-02  0.18598E-02  0.17397E-02
  0.15504E-02  0.12829E-02  0.91392E-03  0.38888E-03 -0.35361E-03 -0.12932E-02
 -0.22324E-02 -0.28043E-02 -0.26397E-02  0.10988E-02  0.16223E-04 -0.10327E-02
 -0.16664E-02 -0.17052E-02 -0.12356E-02 -0.51027E-03  0.22128E-03  0.82630E-03
  0.12919E-02  0.16563E-02  0.19474E-02  0.21710E-02  0.23283E-02  0.24233E-02
  0.24500E-02  0.23883E-02  0.22215E-02  0.19551E-02  0.16101E-02  0.12086E-02
  0.78233E-03  0.40108E-03  0.16906E-03  0.16902E-03  0.40096E-03  0.78216E-03
  0.12084E-02  0.16099E-02  0.19549E-02  0.22214E-02  0.23882E-02  0.24499E-02
  0.24232E-02  0.23283E-02  0.21710E-02  0.19475E-02  0.16563E-02  0.12919E-02
  0.82636E-03  0.22133E-03 -0.51024E-03 -0.12356E-02 -0.17052E-02 -0.16665E-02
  0.60642E-03  0.15422E-04 -0.54024E-03 -0.83812E-03 -0.77210E-03 -0.39145E-03
  0.15619E-03  0.72263E-03  0.12259E-02  0.16533E-02  0.20217E-02  0.23399E-02
  0.26028E-02  0.28055E-02  0.29501E-02  0.30358E-02  0.30491E-02  0.29726E-02
  0.28047E-02  0.25658E-02  0.22888E-02  0.20119E-02  0.17810E-02  0.16471E-02
  0.16471E-02  0.17809E-02  0.20118E-02  0.22886E-02  0.25657E-02  0.28046E-02
  0.29725E-02  0.30490E-02  0.30358E-02  0.29501E-02  0.28055E-02  0.26029E-02
  0.23399E-02  0.20217E-02  0.16534E-02  0.12259E-02  0.72268E-03  0.15624E-03
 -0.39142E-03 -0.77208E-03 -0.83812E-03  0.24623E-03 -0.14137E-04 -0.23594E-03
 -0.30335E-03 -0.15920E-03  0.17352E-03  0.61885E-03  0.10960E-02  0.15540E-02
  0.19763E-02  0.23641E-02  0.27167E-02  0.30255E-02  0.32811E-02  0.34808E-02
  0.36259E-02  0.37131E-02  0.37324E-02  0.36769E-02  0.35540E-02  0.33884E-02
  0.32158E-02  0.30737E-02  0.29935E-02  0.29935E-02  0.30736E-02  0.32157E-02
  0.33884E-02  0.35540E-02  0.36769E-02  0.37324E-02  0.37130E-02  0.36259E-02
  0.34808E-02  0.32811E-02  0.30255E-02  0.27167E-02  0.23641E-02  0.19764E-02
  0.15541E-02  0.10961E-02  0.61890E-03  0.17357E-03 -0.15917E-03 -0.30333E-03
 -0.88571E-05 -0.85855E-04 -0.11853E-03 -0.48163E-04  0.15523E-03  0.48155E-03
  0.89291E-03  0.13452E-02  0.18035E-02  0.22479E-02  0.26698E-02  0.30653E-02
  0.34270E-02  0.37435E-02  0.40054E-02  0.42110E-02  0.43641E-02  0.44654E-02
  0.45101E-02  0.44964E-02  0.44365E-02  0.43565E-02  0.42861E-02  0.42461E-02
  0.42461E-02  0.42860E-02  0.43565E-02  0.44364E-02  0.44964E-02  0.45101E-02
  0.44654E-02  0.43641E-02  0.42110E-02  0.40054E-02  0.37436E-02  0.34271E-02
  0.30653E-02  0.26699E-02  0.22479E-02  0.18036E-02  0.13452E-02  0.89297E-03
  0.48160E-03  0.15526E-03 -0.48141E-04 -0.21790E-03 -0.20876E-03 -0.14740E-03
 -0.16318E-06  0.24956E-03  0.59521E-03  0.10146E-02  0.14809E-02  0.19680E-02
  0.24538E-02  0.29240E-02  0.33723E-02  0.37935E-02  0.41772E-02  0.45091E-02
  0.47817E-02  0.49984E-02  0.51661E-02  0.52857E-02  0.53554E-02  0.53807E-02
  0.53788E-02  0.53690E-02  0.53626E-02  0.53626E-02  0.53690E-02  0.53788E-02
  0.53807E-02  0.53554E-02  0.52857E-02  0.51661E-02  0.49984E-02  0.47817E-02
  0.45091E-02  0.41773E-02  0.37936E-02  0.33723E-02  0.29241E-02  0.24539E-02
  0.19680E-02  0.14809E-02  0.10147E-02  0.59525E-03  0.24959E-03 -0.13897E-06
 -0.42808E-03 -0.38863E-03 -0.28710E-03 -0.99305E-04  0.18518E-03  0.55931E-03
  0.10058E-02  0.15052E-02  0.20369E-02  0.25784E-02  0.31106E-02  0.36226E-02
  0.41092E-02  0.45622E-02  0.49676E-02  0.53137E-02  0.55988E-02  0.58280E-02
  0.60052E-02  0.61322E-02  0.62144E-02  0.62637E-02  0.62925E-02  0.63067E-02
  0.63067E-02  0.62925E-02  0.62637E-02  0.62144E-02  0.61322E-02  0.60052E-02
  0.58280E-02  0.55989E-02  0.53138E-02  0.49676E-02  0.45622E-02  0.41093E-02
  0.36227E-02  0.31107E-02  0.25785E-02  0.20369E-02  0.15053E-02  0.10059E-02
  0.55935E-03  0.18521E-03 -0.99281E-04 -0.66711E-03 -0.63393E-03 -0.52581E-03
 -0.32102E-03 -0.11528E-04  0.39403E-03  0.87790E-03  0.14217E-02  0.20070E-02
  0.26125E-02  0.32160E-02  0.38009E-02  0.43574E-02  0.48781E-02  0.53532E-02
  0.57718E-02  0.61269E-02  0.64168E-02  0.66437E-02  0.68117E-02  0.69280E-02
  0.70027E-02  0.70459E-02  0.70656E-02  0.70656E-02  0.70459E-02  0.70027E-02
  0.69281E-02  0.68117E-02  0.66437E-02  0.64169E-02  0.61269E-02  0.57718E-02
  0.53532E-02  0.48782E-02  0.43575E-02  0.38010E-02  0.32161E-02  0.26125E-02
  0.20070E-02  0.14217E-02  0.87795E-03  0.39407E-03 -0.11499E-04 -0.32100E-03
 -0.95099E-03 -0.95889E-03 -0.87486E-03 -0.67400E-03 -0.34710E-03  0.95652E-04
  0.63142E-03  0.12350E-02  0.18841E-02  0.25576E-02  0.32349E-02  0.38960E-02
  0.45250E-02  0.51112E-02  0.56476E-02  0.61276E-02  0.65416E-02  0.68805E-02
  0.71421E-02  0.73323E-02  0.74614E-02  0.75396E-02  0.75785E-02  0.75925E-02
  0.75925E-02  0.75785E-02  0.75396E-02  0.74614E-02  0.73323E-02  0.71421E-02
  0.68806E-02  0.65417E-02  0.61277E-02  0.56477E-02  0.51112E-02  0.45251E-02
  0.38961E-02  0.32349E-02  0.25577E-02  0.18841E-02  0.12351E-02  0.63145E-03
  0.95680E-04 -0.34708E-03 -0.67399E-03 -0.12831E-02 -0.13735E-02 -0.13509E-02
 -0.11805E-02 -0.84732E-03 -0.36145E-03  0.24608E-03  0.93493E-03  0.16680E-02
  0.24192E-02  0.31710E-02  0.39071E-02  0.46077E-02  0.52561E-02  0.58445E-02
  0.63685E-02  0.68173E-02  0.71756E-02  0.74369E-02  0.76107E-02  0.77144E-02
  0.77637E-02  0.77756E-02  0.77723E-02  0.77723E-02  0.77756E-02  0.77637E-02
  0.77144E-02  0.76107E-02  0.74369E-02  0.71756E-02  0.68173E-02  0.63685E-02
  0.58446E-02  0.52562E-02  0.46077E-02  0.39071E-02  0.31711E-02  0.24192E-02
  0.16681E-02  0.93496E-03  0.24611E-03 -0.36144E-03 -0.84731E-03 -0.11805E-02
 -0.16530E-02 -0.18763E-02 -0.19602E-02 -0.18533E-02 -0.15314E-02 -0.10036E-02
 -0.30909E-03  0.49299E-03  0.13415E-02  0.21935E-02  0.30298E-02  0.38405E-02
  0.46086E-02  0.53131E-02  0.59411E-02  0.64867E-02  0.69364E-02  0.72684E-02
  0.74719E-02  0.75618E-02  0.75693E-02  0.75267E-02  0.74656E-02  0.74214E-02
  0.74214E-02  0.74656E-02  0.75267E-02  0.75694E-02  0.75618E-02  0.74720E-02
  0.72684E-02  0.69364E-02  0.64867E-02  0.59412E-02  0.53132E-02  0.46087E-02
  0.38405E-02  0.30299E-02  0.21936E-02  0.13416E-02  0.49300E-03 -0.30909E-03
 -0.10036E-02 -0.15314E-02 -0.18533E-02 -0.20443E-02 -0.24688E-02 -0.27154E-02
 -0.27047E-02 -0.24058E-02 -0.18357E-02 -0.10458E-02 -0.11144E-03  0.88224E-03
  0.18666E-02  0.28086E-02  0.37004E-02  0.45318E-02  0.52821E-02  0.59323E-02
  0.64698E-02  0.68747E-02  0.71166E-02  0.71791E-02  0.70828E-02  0.68811E-02
  0.66383E-02  0.64201E-02  0.62895E-02  0.62895E-02  0.64201E-02  0.66383E-02
  0.68811E-02  0.70829E-02  0.71791E-02  0.71167E-02  0.68748E-02  0.64699E-02
  0.59324E-02  0.52821E-02  0.45319E-02  0.37005E-02  0.28087E-02  0.18666E-02
  0.88224E-03 -0.11145E-03 -0.10458E-02 -0.18357E-02 -0.24058E-02 -0.27047E-02
 -0.24094E-02 -0.31487E-02 -0.36538E-02 -0.37828E-02 -0.34983E-02 -0.28554E-02
 -0.19457E-02 -0.86491E-03  0.28954E-03  0.14289E-02  0.24988E-02  0.34829E-02
  0.43764E-02  0.51621E-02  0.58145E-02  0.63076E-02  0.66077E-02  0.66727E-02
  0.64798E-02  0.60581E-02  0.54921E-02  0.48981E-02  0.44017E-02  0.41173E-02
  0.41173E-02  0.44017E-02  0.48981E-02  0.54921E-02  0.60582E-02  0.64798E-02
  0.66728E-02  0.66078E-02  0.63077E-02  0.58146E-02  0.51621E-02  0.43764E-02
  0.34830E-02  0.24988E-02  0.14289E-02  0.28952E-03 -0.86495E-03 -0.19458E-02
 -0.28555E-02 -0.34984E-02 -0.37828E-02 -0.25660E-02 -0.38143E-02 -0.47721E-02
 -0.51471E-02 -0.48703E-02 -0.40817E-02 -0.29823E-02 -0.17221E-02 -0.40074E-03
  0.89623E-03  0.21012E-02  0.31841E-02  0.41394E-02  0.49533E-02  0.55910E-02
  0.60036E-02  0.61332E-02  0.59217E-02  0.53427E-02  0.44411E-02  0.33439E-02
  0.22384E-02  0.13353E-02  0.82519E-03  0.82517E-03  0.13352E-02  0.22384E-02
  0.33439E-02  0.44411E-02  0.53427E-02  0.59217E-02  0.61333E-02  0.60037E-02
  0.55911E-02  0.49534E-02  0.41394E-02  0.31841E-02  0.21012E-02  0.89620E-03
 -0.40080E-03 -0.17221E-02 -0.29824E-02 -0.40819E-02 -0.48704E-02 -0.51472E-02
 -0.21106E-02 -0.41370E-02 -0.58756E-02 -0.67312E-02 -0.65254E-02 -0.55211E-02
 -0.41273E-02 -0.26239E-02 -0.11244E-02  0.31646E-03  0.16428E-02  0.28159E-02
  0.38261E-02  0.46604E-02  0.52709E-02  0.55768E-02  0.54856E-02  0.49203E-02
  0.38578E-02  0.23693E-02  0.63472E-03 -0.10786E-02 -0.24633E-02 -0.32407E-02
 -0.32407E-02 -0.24634E-02 -0.10786E-02  0.63464E-03  0.23693E-02  0.38578E-02
  0.49203E-02  0.54857E-02  0.55769E-02  0.52709E-02  0.46604E-02  0.38261E-02
  0.28159E-02  0.16427E-02  0.31641E-03 -0.11245E-02 -0.26240E-02 -0.41275E-02
 -0.55213E-02 -0.65256E-02 -0.67314E-02 -0.56631E-03 -0.36175E-02 -0.65223E-02
 -0.82078E-02 -0.82610E-02 -0.70601E-02 -0.53056E-02 -0.34982E-02 -0.18060E-02
 -0.24154E-03  0.11765E-02  0.24144E-02  0.34597E-02  0.42988E-02  0.48703E-02
  0.50591E-02  0.47352E-02  0.38057E-02  0.22609E-02  0.20821E-03 -0.21194E-02
 -0.43851E-02 -0.62021E-02 -0.72180E-02 -0.72180E-02 -0.62023E-02 -0.43853E-02
 -0.21195E-02  0.20811E-03  0.22609E-02  0.38057E-02  0.47352E-02  0.50591E-02
  0.48704E-02  0.42988E-02  0.34597E-02  0.24144E-02  0.11764E-02 -0.24161E-03
 -0.18061E-02 -0.34984E-02 -0.53058E-02 -0.70604E-02 -0.82614E-02 -0.82082E-02
  0.21781E-02 -0.19509E-02 -0.62498E-02 -0.90678E-02 -0.96418E-02 -0.84003E-02
 -0.63430E-02 -0.42436E-02 -0.23706E-02 -0.71031E-03  0.76314E-03  0.20313E-02
  0.30821E-02  0.39031E-02  0.44239E-02  0.45033E-02  0.39847E-02  0.27720E-02
  0.88188E-03 -0.15376E-02 -0.42142E-02 -0.67791E-02 -0.88169E-02 -0.99507E-02
 -0.99508E-02 -0.88171E-02 -0.67794E-02 -0.42145E-02 -0.15378E-02  0.88178E-03
  0.27720E-02  0.39847E-02  0.45034E-02  0.44239E-02  0.39031E-02  0.30822E-02
  0.20313E-02  0.76308E-03 -0.71041E-03 -0.23707E-02 -0.42438E-02 -0.63433E-02
 -0.84007E-02 -0.96423E-02 -0.90683E-02 -0.42038E-02  0.10688E-02  0.67513E-02
  0.10594E-01  0.11498E-01  0.99832E-02  0.73940E-02  0.48098E-02  0.26133E-02
  0.76200E-03 -0.82530E-03 -0.21549E-02 -0.32211E-02 -0.40177E-02 -0.44732E-02
 -0.44243E-02 -0.36783E-02 -0.21058E-02  0.29657E-03  0.33803E-02  0.68368E-02
  0.10205E-01  0.12921E-01  0.14448E-01  0.14447E-01  0.12921E-01  0.10205E-01
  0.68367E-02  0.33802E-02  0.29656E-03 -0.21058E-02 -0.36782E-02 -0.44242E-02
 -0.44732E-02 -0.40177E-02 -0.32211E-02 -0.21549E-02 -0.82539E-03  0.76186E-03
  0.26131E-02  0.48095E-02  0.73936E-02  0.99827E-02  0.11497E-01  0.10593E-01
 -0.29373E-02  0.27986E-02  0.87194E-02  0.12462E-01  0.12982E-01  0.10969E-01
  0.79394E-02  0.50517E-02  0.26736E-02  0.70845E-03 -0.96571E-03 -0.23701E-02
 -0.34995E-02 -0.43442E-02 -0.48250E-02 -0.47632E-02 -0.39372E-02 -0.21721E-02
  0.59054E-03  0.42399E-02  0.84476E-02  0.12646E-01  0.16089E-01  0.18043E-01
  0.18043E-01  0.16089E-01  0.12645E-01  0.84475E-02  0.42398E-02  0.59054E-03
 -0.21720E-02 -0.39372E-02 -0.47632E-02 -0.48249E-02 -0.43442E-02 -0.34995E-02
 -0.23701E-02 -0.96580E-03  0.70831E-03  0.26734E-02  0.50514E-02  0.79390E-02
  0.10968E-01  0.12981E-01  0.12462E-01 -0.54883E-03  0.48927E-02  0.10191E-01
  0.13234E-01  0.13212E-01  0.10906E-01  0.77751E-02  0.48678E-02  0.24755E-02
  0.47996E-03 -0.12355E-02 -0.26854E-02 -0.38622E-02 -0.47540E-02 -0.52820E-02
 -0.52711E-02 -0.44979E-02 -0.27674E-02  0.17877E-04  0.37858E-02  0.82172E-02
  0.12705E-01  0.16422E-01  0.18542E-01  0.18542E-01  0.16422E-01  0.12704E-01
  0.82172E-02  0.37858E-02  0.17897E-04 -0.27673E-02 -0.44979E-02 -0.52711E-02
 -0.52820E-02 -0.47540E-02 -0.38622E-02 -0.26855E-02 -0.12355E-02  0.47982E-03
  0.24753E-02  0.48675E-02  0.77747E-02  0.10906E-01  0.13211E-01  0.13233E-01
  0.19507E-02  0.64496E-02  0.10520E-01  0.12559E-01  0.12069E-01  0.97929E-02
  0.69244E-02  0.42645E-02  0.20087E-02  0.64527E-04 -0.16357E-02 -0.30859E-02
 -0.42776E-02 -0.52011E-02 -0.57866E-02 -0.58821E-02 -0.52915E-02 -0.38313E-02
 -0.13903E-02  0.19923E-02  0.60374E-02  0.10180E-01  0.13635E-01  0.15614E-01
  0.15614E-01  0.13635E-01  0.10180E-01  0.60374E-02  0.19923E-02 -0.13902E-02
 -0.38313E-02 -0.52915E-02 -0.58821E-02 -0.57866E-02 -0.52011E-02 -0.42776E-02
 -0.30859E-02 -0.16357E-02  0.64409E-04  0.20085E-02  0.42642E-02  0.69241E-02