       #
       # Generated by the Wannier90 code http://www.wannier.org
       # On 29Dec2023 at 23:55:10 
       #
CRYSTAL
PRIMVEC
   4.1863376   0.0000000   0.0000000
   0.0000000   4.1863376   0.0000000
   0.0000000   0.0000000   4.1863376
CONVVEC
   4.1863376   0.0000000   0.0000000
   0.0000000   4.1863376   0.0000000
   0.0000000   0.0000000   4.1863376
PRIMCOORD
     8  1
O       0.0000000   0.0000000   0.0000000
O       0.0000000   2.0931688   2.0931688
O       2.0931688   0.0000000   2.0931688
O       2.0931688   2.0931688   0.0000000
Ni      0.0000000   0.0000000   2.0931688
Ni      2.0931688   0.0000000   0.0000000
Ni      0.0000000   2.0931688   0.0000000
Ni      2.0931688   2.0931688   2.0931688


BEGIN_BLOCK_DATAGRID_3D
3D_field
BEGIN_DATAGRID_3D_UNKNOWN
    45    45    45
   -0.093030   -0.093030   -0.093030
   4.0933079   0.0000000   0.0000000
   0.0000000   4.0933079   0.0000000
   0.0000000   0.0000000   4.0933079
  0.25996E-01  0.17800E-01  0.72214E-02 -0.19335E-02 -0.73260E-02 -0.90614E-02
 -0.87030E-02 -0.76910E-02 -0.66293E-02 -0.55767E-02 -0.45283E-02 -0.35322E-02
 -0.25821E-02 -0.15761E-02 -0.32397E-03  0.15328E-02  0.46000E-02  0.95297E-02
  0.16415E-01  0.24052E-01  0.29703E-01  0.29958E-01  0.22606E-01  0.84488E-02
 -0.84489E-02 -0.22606E-01 -0.29958E-01 -0.29703E-01 -0.24052E-01 -0.16415E-01
 -0.95297E-02 -0.46000E-02 -0.15328E-02  0.32392E-03  0.15760E-02  0.25821E-02
  0.35321E-02  0.45282E-02  0.55766E-02  0.66292E-02  0.76909E-02  0.87028E-02
  0.90610E-02  0.73253E-02  0.19325E-02  0.18798E-01  0.95851E-02 -0.92865E-03
 -0.89602E-02 -0.12625E-01 -0.12608E-01 -0.10863E-01 -0.89182E-02 -0.72791E-02
 -0.58836E-02 -0.46581E-02 -0.36210E-02 -0.27491E-02 -0.19451E-02 -0.10863E-02
  0.81921E-05  0.16447E-02  0.41671E-02  0.76505E-02  0.11530E-01  0.14469E-01
  0.14748E-01  0.11207E-01  0.42038E-02 -0.42036E-02 -0.11207E-01 -0.14748E-01
 -0.14469E-01 -0.11530E-01 -0.76503E-02 -0.41670E-02 -0.16447E-02 -0.82570E-05
  0.10863E-02  0.19450E-02  0.27490E-02  0.36209E-02  0.46580E-02  0.58835E-02
  0.72791E-02  0.89183E-02  0.10863E-01  0.12609E-01  0.12625E-01  0.89603E-02
  0.87821E-02 -0.25203E-03 -0.93162E-02 -0.15197E-01 -0.16723E-01 -0.15051E-01
 -0.12223E-01 -0.96270E-02 -0.75997E-02 -0.59852E-02 -0.46679E-02 -0.36349E-02
 -0.28457E-02 -0.22316E-02 -0.17737E-02 -0.15043E-02 -0.14500E-02 -0.16053E-02
 -0.19166E-02 -0.22428E-02 -0.23665E-02 -0.21090E-02 -0.14486E-02 -0.51346E-03
  0.51394E-03  0.14491E-02  0.21094E-02  0.23669E-02  0.22431E-02  0.19167E-02
  0.16053E-02  0.14499E-02  0.15042E-02  0.17736E-02  0.22315E-02  0.28456E-02
  0.36348E-02  0.46679E-02  0.59852E-02  0.75998E-02  0.96273E-02  0.12224E-01
  0.15052E-01  0.16724E-01  0.15198E-01 -0.43224E-03 -0.81541E-02 -0.14949E-01
 -0.18478E-01 -0.18262E-01 -0.15635E-01 -0.12404E-01 -0.96356E-02 -0.74976E-02
 -0.58100E-02 -0.44700E-02 -0.34593E-02 -0.27405E-02 -0.22885E-02 -0.21764E-02
 -0.25903E-02 -0.37949E-02 -0.60444E-02 -0.93235E-02 -0.12970E-01 -0.15554E-01
 -0.15380E-01 -0.11449E-01 -0.42478E-02  0.42484E-02  0.11449E-01  0.15381E-01
  0.15555E-01  0.12970E-01  0.93235E-02  0.60443E-02  0.37948E-02  0.25901E-02
  0.21762E-02  0.22883E-02  0.27404E-02  0.34592E-02  0.44700E-02  0.58101E-02
  0.74978E-02  0.96360E-02  0.12405E-01  0.15636E-01  0.18264E-01  0.18480E-01
 -0.64415E-02 -0.12224E-01 -0.16688E-01 -0.18369E-01 -0.17253E-01 -0.14535E-01
 -0.11559E-01 -0.90169E-02 -0.69693E-02 -0.52988E-02 -0.39734E-02 -0.30019E-02
 -0.23646E-02 -0.20688E-02 -0.22229E-02 -0.30535E-02 -0.49057E-02 -0.81547E-02
 -0.12840E-01 -0.18097E-01 -0.21931E-01 -0.21873E-01 -0.16385E-01 -0.61003E-02
  0.61008E-02  0.16386E-01  0.21873E-01  0.21932E-01  0.18097E-01  0.12840E-01
  0.81545E-02  0.49055E-02  0.30532E-02  0.22227E-02  0.20686E-02  0.23644E-02
  0.30018E-02  0.39734E-02  0.52989E-02  0.69696E-02  0.90173E-02  0.11560E-01
  0.14537E-01  0.17255E-01  0.18371E-01 -0.91081E-02 -0.12944E-01 -0.15538E-01
 -0.16109E-01 -0.14834E-01 -0.12570E-01 -0.10152E-01 -0.79676E-02 -0.60653E-02
 -0.44489E-02 -0.31760E-02 -0.22828E-02 -0.17576E-02 -0.16111E-02 -0.19311E-02
 -0.28950E-02 -0.47980E-02 -0.80019E-02 -0.12588E-01 -0.17768E-01 -0.21610E-01
 -0.21641E-01 -0.16266E-01 -0.60675E-02  0.60678E-02  0.16267E-01  0.21641E-01
  0.21610E-01  0.17768E-01  0.12587E-01  0.80017E-02  0.47977E-02  0.28948E-02
  0.19309E-02  0.16109E-02  0.17575E-02  0.22827E-02  0.31759E-02  0.44490E-02
  0.60656E-02  0.79681E-02  0.10153E-01  0.12571E-01  0.14836E-01  0.16111E-01
 -0.97554E-02 -0.12034E-01 -0.13354E-01 -0.13366E-01 -0.12254E-01 -0.10512E-01
 -0.85722E-02 -0.66576E-02 -0.48803E-02 -0.33571E-02 -0.21913E-02 -0.14119E-02
 -0.99719E-03 -0.95058E-03 -0.13279E-02 -0.22336E-02 -0.38529E-02 -0.64396E-02
 -0.10063E-01 -0.14141E-01 -0.17179E-01 -0.17219E-01 -0.12961E-01 -0.48393E-02
  0.48393E-02  0.12961E-01  0.17219E-01  0.17179E-01  0.14141E-01  0.10063E-01
  0.64394E-02  0.38526E-02  0.22333E-02  0.13276E-02  0.95032E-03  0.99698E-03
  0.14117E-02  0.21913E-02  0.33572E-02  0.48805E-02  0.66580E-02  0.85728E-02
  0.10513E-01  0.12255E-01  0.13367E-01 -0.97034E-02 -0.10892E-01 -0.11394E-01
 -0.11095E-01 -0.10114E-01 -0.86705E-02 -0.69719E-02 -0.52055E-02 -0.35578E-02
 -0.21855E-02 -0.11619E-02 -0.48091E-03 -0.12339E-03 -0.10917E-03 -0.48412E-03
 -0.12939E-02 -0.26064E-02 -0.45234E-02 -0.70446E-02 -0.97778E-02 -0.11759E-01
 -0.11716E-01 -0.87941E-02 -0.32801E-02  0.32799E-02  0.87939E-02  0.11716E-01
  0.11759E-01  0.97775E-02  0.70443E-02  0.45231E-02  0.26060E-02  0.12936E-02
  0.48380E-03  0.10887E-03  0.12314E-03  0.48073E-03  0.11618E-02  0.21855E-02
  0.35580E-02  0.52058E-02  0.69724E-02  0.86712E-02  0.10115E-01  0.11096E-01
 -0.95412E-02 -0.99893E-02 -0.99409E-02 -0.93929E-02 -0.83922E-02 -0.70099E-02
 -0.53845E-02 -0.37298E-02 -0.22529E-02 -0.10597E-02 -0.15309E-03  0.48467E-03
  0.82659E-03  0.81296E-03  0.40598E-03 -0.38474E-03 -0.15263E-02 -0.29849E-02
 -0.46746E-02 -0.63277E-02 -0.74079E-02 -0.72360E-02 -0.53669E-02 -0.19911E-02
  0.19909E-02  0.53667E-02  0.72358E-02  0.74076E-02  0.63274E-02  0.46742E-02
  0.29846E-02  0.15259E-02  0.38438E-03 -0.40633E-03 -0.81329E-03 -0.82688E-03
 -0.48490E-03  0.15293E-03  0.10596E-02  0.22529E-02  0.37299E-02  0.53848E-02
  0.70104E-02  0.83929E-02  0.93937E-02 -0.93471E-02 -0.92630E-02 -0.88140E-02
 -0.80262E-02 -0.68960E-02 -0.54567E-02 -0.38644E-02 -0.23465E-02 -0.10538E-02
  0.41965E-06  0.84956E-03  0.14606E-02  0.17360E-02  0.16037E-02  0.10747E-02
  0.22160E-03 -0.86445E-03 -0.20820E-02 -0.32938E-02 -0.42945E-02 -0.48011E-02
 -0.45120E-02 -0.32613E-02 -0.11949E-02  0.11946E-02  0.32611E-02  0.45117E-02
  0.48008E-02  0.42942E-02  0.32935E-02  0.20816E-02  0.86408E-03 -0.22198E-03
 -0.10751E-02 -0.16041E-02 -0.17363E-02 -0.14609E-02 -0.84977E-03 -0.56208E-06
  0.10537E-02  0.23465E-02  0.38646E-02  0.54570E-02  0.68964E-02  0.80268E-02
 -0.91268E-02 -0.86347E-02 -0.78725E-02 -0.68478E-02 -0.55414E-02 -0.40225E-02
 -0.24825E-02 -0.11069E-02  0.53301E-04  0.10410E-02  0.18451E-02  0.23458E-02
  0.24185E-02  0.20509E-02  0.13365E-02  0.38521E-03 -0.71745E-03 -0.18703E-02
 -0.29135E-02 -0.36448E-02 -0.38736E-02 -0.34711E-02 -0.24211E-02 -0.87062E-03
  0.87041E-03  0.24209E-02  0.34708E-02  0.38733E-02  0.36445E-02  0.29132E-02
  0.18700E-02  0.71709E-03 -0.38559E-03 -0.13368E-02 -0.20513E-02 -0.24189E-02
 -0.23461E-02 -0.18454E-02 -0.10413E-02 -0.53448E-04  0.11068E-02  0.24825E-02
  0.40227E-02  0.55416E-02  0.68481E-02 -0.89242E-02 -0.81038E-02 -0.70718E-02
 -0.58044E-02 -0.43108E-02 -0.27284E-02 -0.12518E-02  0.23602E-04  0.11269E-02
  0.20714E-02  0.27453E-02  0.29840E-02  0.27269E-02  0.20636E-02  0.11308E-02
  0.92597E-05 -0.12559E-02 -0.25580E-02 -0.36862E-02 -0.43874E-02 -0.44675E-02
 -0.38543E-02 -0.26106E-02 -0.92363E-03  0.92349E-03  0.26104E-02  0.38541E-02
  0.44673E-02  0.43871E-02  0.36859E-02  0.25577E-02  0.12556E-02 -0.96228E-05
 -0.11312E-02 -0.20640E-02 -0.27273E-02 -0.29843E-02 -0.27456E-02 -0.20717E-02
 -0.11272E-02 -0.23780E-04  0.12517E-02  0.27284E-02  0.43108E-02  0.58045E-02
 -0.87249E-02 -0.76214E-02 -0.63303E-02 -0.48179E-02 -0.31583E-02 -0.15450E-02
 -0.12477E-03  0.11045E-02  0.21802E-02  0.30127E-02  0.34104E-02  0.32596E-02
  0.26204E-02  0.16325E-02  0.37628E-03 -0.11345E-02 -0.28383E-02 -0.45343E-02
 -0.59086E-02 -0.66422E-02 -0.65195E-02 -0.54855E-02 -0.36541E-02 -0.12818E-02
  0.12818E-02  0.36541E-02  0.54854E-02  0.65194E-02  0.66421E-02  0.59083E-02
  0.45341E-02  0.28380E-02  0.11342E-02 -0.37665E-03 -0.16329E-02 -0.26208E-02
 -0.32600E-02 -0.34108E-02 -0.30131E-02 -0.21805E-02 -0.11048E-02  0.12454E-03
  0.15448E-02  0.31582E-02  0.48178E-02 -0.84541E-02 -0.70802E-02 -0.55294E-02
 -0.37978E-02 -0.20324E-02 -0.43246E-03  0.94223E-03  0.21488E-02  0.31513E-02
  0.37455E-02  0.37423E-02  0.31492E-02  0.21035E-02  0.67759E-03 -0.11632E-02
 -0.34063E-02 -0.58491E-02 -0.81221E-02 -0.98132E-02 -0.10567E-01 -0.10136E-01
 -0.84349E-02 -0.55925E-02 -0.19584E-02  0.19585E-02  0.55926E-02  0.84350E-02
  0.10136E-01  0.10567E-01  0.98130E-02  0.81219E-02  0.58488E-02  0.34060E-02
  0.11629E-02 -0.67797E-03 -0.21039E-02 -0.31496E-02 -0.37427E-02 -0.37459E-02
 -0.31517E-02 -0.21492E-02 -0.94256E-03  0.43217E-03  0.20322E-02  0.37976E-02
 -0.80157E-02 -0.63469E-02 -0.45424E-02 -0.26625E-02 -0.89146E-03  0.63769E-03
  0.19600E-02  0.31153E-02  0.39458E-02  0.41851E-02  0.37260E-02  0.26732E-02
  0.11184E-02 -0.10112E-02 -0.37998E-02 -0.70988E-02 -0.10500E-01 -0.13509E-01
 -0.15679E-01 -0.16591E-01 -0.15854E-01 -0.13228E-01 -0.88068E-02 -0.30922E-02
  0.30925E-02  0.88070E-02  0.13229E-01  0.15854E-01  0.16591E-01  0.15679E-01
  0.13509E-01  0.10499E-01  0.70985E-02  0.37995E-02  0.10108E-02 -0.11188E-02
 -0.26737E-02 -0.37264E-02 -0.41855E-02 -0.39463E-02 -0.31158E-02 -0.19604E-02
 -0.63808E-03  0.89111E-03  0.26622E-02 -0.71447E-02 -0.50915E-02 -0.30556E-02
 -0.11685E-02  0.43397E-03  0.17698E-02  0.29577E-02  0.39563E-02  0.44894E-02
  0.43027E-02  0.33823E-02  0.18143E-02 -0.47230E-03 -0.36558E-02 -0.77174E-02
 -0.12304E-01 -0.16903E-01 -0.21031E-01 -0.24176E-01 -0.25661E-01 -0.24712E-01
 -0.20785E-01 -0.13925E-01 -0.49060E-02  0.49065E-02  0.13925E-01  0.20785E-01
  0.24712E-01  0.25662E-01  0.24176E-01  0.21031E-01  0.16903E-01  0.12304E-01
  0.77171E-02  0.36555E-02  0.47191E-03 -0.18148E-02 -0.33828E-02 -0.43032E-02
 -0.44899E-02 -0.39568E-02 -0.29581E-02 -0.17703E-02 -0.43439E-03  0.11681E-02
 -0.51915E-02 -0.25559E-02 -0.33203E-03  0.13039E-02  0.24029E-02  0.32474E-02
  0.40500E-02  0.46706E-02  0.47546E-02  0.40994E-02  0.27083E-02  0.50020E-03
 -0.27940E-02 -0.73293E-02 -0.12884E-01 -0.19013E-01 -0.25316E-01 -0.31354E-01
 -0.36322E-01 -0.38949E-01 -0.37858E-01 -0.32103E-01 -0.21653E-01 -0.76598E-02
  0.76606E-02  0.21654E-01  0.32103E-01  0.37858E-01  0.38949E-01  0.36322E-01
  0.31355E-01  0.25316E-01  0.19013E-01  0.12884E-01  0.73290E-02  0.27936E-02
 -0.50062E-03 -0.27087E-02 -0.40999E-02 -0.47552E-02 -0.46712E-02 -0.40505E-02
 -0.32479E-02 -0.24034E-02 -0.13043E-02 -0.13332E-02  0.22144E-02  0.45788E-02
  0.55841E-02  0.56433E-02  0.54612E-02  0.54181E-02  0.53179E-02  0.47706E-02
  0.35959E-02  0.16810E-02 -0.13297E-02 -0.58527E-02 -0.11910E-01 -0.19143E-01
 -0.27263E-01 -0.36125E-01 -0.45157E-01 -0.52920E-01 -0.57369E-01 -0.56448E-01
 -0.48569E-01 -0.33223E-01 -0.11856E-01  0.11857E-01  0.33224E-01  0.48570E-01
  0.56449E-01  0.57369E-01  0.52920E-01  0.45157E-01  0.36125E-01  0.27263E-01
  0.19142E-01  0.11910E-01  0.58524E-02  0.13293E-02 -0.16815E-02 -0.35964E-02
 -0.47711E-02 -0.53185E-02 -0.54187E-02 -0.54618E-02 -0.56438E-02 -0.55845E-02
  0.45978E-02  0.94873E-02  0.12016E-01  0.12025E-01  0.10453E-01  0.86053E-02
  0.71659E-02  0.59710E-02  0.46141E-02  0.28492E-02  0.31729E-03 -0.36390E-02
 -0.94970E-02 -0.17144E-01 -0.26299E-01 -0.37060E-01 -0.49475E-01 -0.62566E-01
 -0.74206E-01 -0.81812E-01 -0.82572E-01 -0.73270E-01 -0.51525E-01 -0.18687E-01
  0.18688E-01  0.51526E-01  0.73271E-01  0.82573E-01  0.81813E-01  0.74207E-01
  0.62567E-01  0.49475E-01  0.37060E-01  0.26299E-01  0.17144E-01  0.94967E-02
  0.36386E-02 -0.31772E-03 -0.28497E-02 -0.46146E-02 -0.59716E-02 -0.71666E-02
 -0.86059E-02 -0.10453E-01 -0.12026E-01  0.11349E-01  0.18017E-01  0.20906E-01
  0.19823E-01  0.16292E-01  0.12357E-01  0.91462E-02  0.66258E-02  0.43653E-02
  0.19540E-02 -0.12850E-02 -0.62607E-02 -0.13445E-01 -0.22699E-01 -0.34064E-01
 -0.48101E-01 -0.64860E-01 -0.82927E-01 -0.10004E+00 -0.11373E+00 -0.11991E+00
 -0.11140E+00 -0.81232E-01 -0.30036E-01  0.30038E-01  0.81233E-01  0.11141E+00
  0.11991E+00  0.11373E+00  0.10004E+00  0.82927E-01  0.64860E-01  0.48101E-01
  0.34063E-01  0.22699E-01  0.13445E-01  0.62604E-02  0.12846E-02 -0.19544E-02
 -0.43659E-02 -0.66264E-02 -0.91469E-02 -0.12358E-01 -0.16293E-01 -0.19823E-01
  0.16599E-01  0.25350E-01  0.28987E-01  0.27144E-01  0.21854E-01  0.15905E-01
  0.10952E-01  0.71594E-02  0.40584E-02  0.10136E-02 -0.29587E-02 -0.89264E-02
 -0.17331E-01 -0.28156E-01 -0.41914E-01 -0.59558E-01 -0.81023E-01 -0.10487E+00
 -0.12978E+00 -0.15414E+00 -0.17135E+00 -0.16693E+00 -0.12576E+00 -0.47251E-01
  0.47254E-01  0.12576E+00  0.16693E+00  0.17136E+00  0.15414E+00  0.12978E+00
  0.10487E+00  0.81023E-01  0.59558E-01  0.41913E-01  0.28156E-01  0.17331E-01
  0.89261E-02  0.29584E-02 -0.10140E-02 -0.40589E-02 -0.71600E-02 -0.10953E-01
 -0.15905E-01 -0.21854E-01 -0.27144E-01  0.18587E-01  0.29445E-01  0.34226E-01
  0.32243E-01  0.25843E-01  0.18434E-01  0.12168E-01  0.74258E-02  0.36967E-02
  0.12663E-03 -0.45018E-02 -0.11321E-01 -0.20750E-01 -0.32992E-01 -0.49047E-01
 -0.70131E-01 -0.96119E-01 -0.12621E+00 -0.16108E+00 -0.20033E+00 -0.23353E+00
 -0.23596E+00 -0.18179E+00 -0.69004E-01  0.69007E-01  0.18179E+00  0.23596E+00
  0.23354E+00  0.20033E+00  0.16108E+00  0.12621E+00  0.96119E-01  0.70131E-01
  0.49047E-01  0.32992E-01  0.20749E-01  0.11321E-01  0.45016E-02 -0.12696E-03
 -0.36971E-02 -0.74263E-02 -0.12168E-01 -0.18434E-01 -0.25844E-01 -0.32243E-01
  0.17670E-01  0.30272E-01  0.36290E-01  0.34665E-01  0.27861E-01  0.19694E-01
  0.12695E-01  0.74205E-02  0.33304E-02 -0.59133E-03 -0.57015E-02 -0.13136E-01
 -0.23304E-01 -0.36639E-01 -0.54522E-01 -0.78319E-01 -0.10798E+00 -0.14374E+00
 -0.18859E+00 -0.24323E+00 -0.29301E+00 -0.30277E+00 -0.23622E+00 -0.90153E-01
  0.90155E-01  0.23622E+00  0.30277E+00  0.29301E+00  0.24323E+00  0.18859E+00
  0.14374E+00  0.10798E+00  0.78319E-01  0.54522E-01  0.36639E-01  0.23304E-01
  0.13135E-01  0.57013E-02  0.59110E-03 -0.33307E-02 -0.74209E-02 -0.12695E-01
 -0.19694E-01 -0.27861E-01 -0.34665E-01  0.16131E-01  0.29727E-01  0.36564E-01
  0.35327E-01  0.28497E-01  0.20077E-01  0.12800E-01  0.73220E-02  0.30872E-02
 -0.10023E-02 -0.63629E-02 -0.14116E-01 -0.24673E-01 -0.38606E-01 -0.57503E-01
 -0.82801E-01 -0.11456E+00 -0.15380E+00 -0.20506E+00 -0.26967E+00 -0.33013E+00
 -0.34464E+00 -0.27035E+00 -0.10341E+00  0.10342E+00  0.27035E+00  0.34464E+00
  0.33013E+00  0.26967E+00  0.20506E+00  0.15380E+00  0.11456E+00  0.82801E-01
  0.57503E-01  0.38606E-01  0.24673E-01  0.14116E-01  0.63628E-02  0.10022E-02
 -0.30873E-02 -0.73222E-02 -0.12800E-01 -0.20077E-01 -0.28497E-01 -0.35327E-01
  0.16131E-01  0.29727E-01  0.36564E-01  0.35327E-01  0.28497E-01  0.20077E-01
  0.12800E-01  0.73221E-02  0.30873E-02 -0.10023E-02 -0.63628E-02 -0.14116E-01
 -0.24673E-01 -0.38606E-01 -0.57503E-01 -0.82801E-01 -0.11456E+00 -0.15380E+00
 -0.20506E+00 -0.26967E+00 -0.33013E+00 -0.34464E+00 -0.27035E+00 -0.10342E+00
  0.10341E+00  0.27035E+00  0.34464E+00  0.33013E+00  0.26967E+00  0.20506E+00
  0.15380E+00  0.11456E+00  0.82801E-01  0.57503E-01  0.38606E-01  0.24673E-01
  0.14116E-01  0.63628E-02  0.10023E-02 -0.30872E-02 -0.73220E-02 -0.12800E-01
 -0.20077E-01 -0.28497E-01 -0.35327E-01  0.17669E-01  0.30271E-01  0.36290E-01
  0.34665E-01  0.27861E-01  0.19694E-01  0.12695E-01  0.74208E-02  0.33307E-02
 -0.59114E-03 -0.57014E-02 -0.13136E-01 -0.23304E-01 -0.36639E-01 -0.54522E-01
 -0.78319E-01 -0.10798E+00 -0.14374E+00 -0.18859E+00 -0.24323E+00 -0.29301E+00
 -0.30277E+00 -0.23622E+00 -0.90155E-01  0.90153E-01  0.23622E+00  0.30277E+00
  0.29301E+00  0.24323E+00  0.18859E+00  0.14374E+00  0.10798E+00  0.78319E-01
  0.54522E-01  0.36639E-01  0.23304E-01  0.13136E-01  0.57015E-02  0.59129E-03
 -0.33305E-02 -0.74205E-02 -0.12695E-01 -0.19694E-01 -0.27861E-01 -0.34665E-01
  0.18586E-01  0.29445E-01  0.34226E-01  0.32243E-01  0.25844E-01  0.18434E-01
  0.12168E-01  0.74263E-02  0.36971E-02  0.12693E-03 -0.45016E-02 -0.11321E-01
 -0.20749E-01 -0.32992E-01 -0.49047E-01 -0.70131E-01 -0.96119E-01 -0.12621E+00
 -0.16108E+00 -0.20033E+00 -0.23354E+00 -0.23596E+00 -0.18179E+00 -0.69007E-01
  0.69004E-01  0.18179E+00  0.23596E+00  0.23353E+00  0.20033E+00  0.16108E+00
  0.12621E+00  0.96119E-01  0.70131E-01  0.49047E-01  0.32992E-01  0.20750E-01
  0.11321E-01  0.45018E-02 -0.12667E-03 -0.36967E-02 -0.74258E-02 -0.12168E-01
 -0.18433E-01 -0.25843E-01 -0.32243E-01  0.16598E-01  0.25349E-01  0.28986E-01
  0.27144E-01  0.21854E-01  0.15905E-01  0.10953E-01  0.71600E-02  0.40588E-02
  0.10140E-02 -0.29584E-02 -0.89261E-02 -0.17331E-01 -0.28156E-01 -0.41914E-01
 -0.59558E-01 -0.81023E-01 -0.10487E+00 -0.12978E+00 -0.15414E+00 -0.17136E+00
 -0.16693E+00 -0.12576E+00 -0.47254E-01  0.47251E-01  0.12576E+00  0.16693E+00
  0.17135E+00  0.15414E+00  0.12978E+00  0.10487E+00  0.81023E-01  0.59558E-01
  0.41914E-01  0.28156E-01  0.17331E-01  0.89263E-02  0.29587E-02 -0.10136E-02
 -0.40584E-02 -0.71595E-02 -0.10952E-01 -0.15905E-01 -0.21853E-01 -0.27144E-01
  0.11348E-01  0.18016E-01  0.20906E-01  0.19823E-01  0.16293E-01  0.12358E-01
  0.91468E-02  0.66263E-02  0.43658E-02  0.19544E-02 -0.12846E-02 -0.62604E-02
 -0.13445E-01 -0.22699E-01 -0.34063E-01 -0.48101E-01 -0.64860E-01 -0.82927E-01
 -0.10004E+00 -0.11373E+00 -0.11991E+00 -0.11140E+00 -0.81233E-01 -0.30038E-01
  0.30036E-01  0.81232E-01  0.11140E+00  0.11991E+00  0.11373E+00  0.10004E+00
  0.82927E-01  0.64860E-01  0.48100E-01  0.34064E-01  0.22699E-01  0.13445E-01
  0.62607E-02  0.12849E-02 -0.19540E-02 -0.43654E-02 -0.66258E-02 -0.91462E-02
 -0.12357E-01 -0.16292E-01 -0.19823E-01  0.45973E-02  0.94870E-02  0.12016E-01
  0.12026E-01  0.10453E-01  0.86059E-02  0.71665E-02  0.59716E-02  0.46146E-02
  0.28497E-02  0.31769E-03 -0.36386E-02 -0.94967E-02 -0.17144E-01 -0.26299E-01
 -0.37060E-01 -0.49475E-01 -0.62567E-01 -0.74207E-01 -0.81813E-01 -0.82573E-01
 -0.73271E-01 -0.51526E-01 -0.18688E-01  0.18687E-01  0.51525E-01  0.73270E-01
  0.82572E-01  0.81812E-01  0.74206E-01  0.62566E-01  0.49475E-01  0.37060E-01
  0.26299E-01  0.17144E-01  0.94969E-02  0.36389E-02 -0.31734E-03 -0.28493E-02
 -0.46141E-02 -0.59711E-02 -0.71659E-02 -0.86053E-02 -0.10453E-01 -0.12025E-01
 -0.13334E-02  0.22144E-02  0.45790E-02  0.55845E-02  0.56438E-02  0.54618E-02
  0.54187E-02  0.53184E-02  0.47711E-02  0.35964E-02  0.16814E-02 -0.13293E-02
 -0.58524E-02 -0.11910E-01 -0.19142E-01 -0.27263E-01 -0.36125E-01 -0.45157E-01
 -0.52920E-01 -0.57369E-01 -0.56449E-01 -0.48570E-01 -0.33224E-01 -0.11857E-01
  0.11856E-01  0.33223E-01  0.48569E-01  0.56448E-01  0.57369E-01  0.52920E-01
  0.45157E-01  0.36125E-01  0.27263E-01  0.19143E-01  0.11910E-01  0.58527E-02
  0.13296E-02 -0.16811E-02 -0.35960E-02 -0.47706E-02 -0.53179E-02 -0.54182E-02
 -0.54613E-02 -0.56433E-02 -0.55841E-02 -0.51914E-02 -0.25557E-02 -0.33177E-03
  0.13042E-02  0.24034E-02  0.32479E-02  0.40505E-02  0.46711E-02  0.47551E-02
  0.40999E-02  0.27087E-02  0.50061E-03 -0.27936E-02 -0.73290E-02 -0.12884E-01
 -0.19013E-01 -0.25316E-01 -0.31355E-01 -0.36322E-01 -0.38949E-01 -0.37858E-01
 -0.32103E-01 -0.21654E-01 -0.76606E-02  0.76598E-02  0.21653E-01  0.32103E-01
  0.37858E-01  0.38949E-01  0.36322E-01  0.31354E-01  0.25316E-01  0.19013E-01
  0.12884E-01  0.73292E-02  0.27939E-02 -0.50025E-03 -0.27083E-02 -0.40995E-02
 -0.47547E-02 -0.46707E-02 -0.40500E-02 -0.32474E-02 -0.24029E-02 -0.13039E-02
 -0.71445E-02 -0.50913E-02 -0.30553E-02 -0.11682E-02  0.43436E-03  0.17703E-02
  0.29581E-02  0.39568E-02  0.44899E-02  0.43031E-02  0.33828E-02  0.18147E-02
 -0.47192E-03 -0.36555E-02 -0.77171E-02 -0.12304E-01 -0.16903E-01 -0.21031E-01
 -0.24176E-01 -0.25662E-01 -0.24712E-01 -0.20785E-01 -0.13925E-01 -0.49065E-02
  0.49060E-02  0.13925E-01  0.20785E-01  0.24712E-01  0.25661E-01  0.24176E-01
  0.21031E-01  0.16903E-01  0.12304E-01  0.77173E-02  0.36558E-02  0.47226E-03
 -0.18144E-02 -0.33824E-02 -0.43027E-02 -0.44895E-02 -0.39564E-02 -0.29577E-02
 -0.17699E-02 -0.43401E-03  0.11685E-02 -0.80155E-02 -0.63467E-02 -0.45422E-02
 -0.26622E-02 -0.89114E-03  0.63805E-03  0.19603E-02  0.31157E-02  0.39462E-02
  0.41855E-02  0.37264E-02  0.26736E-02  0.11188E-02 -0.10108E-02 -0.37995E-02
 -0.70985E-02 -0.10499E-01 -0.13509E-01 -0.15679E-01 -0.16591E-01 -0.15854E-01
 -0.13229E-01 -0.88070E-02 -0.30925E-02  0.30922E-02  0.88068E-02  0.13228E-01
  0.15854E-01  0.16591E-01  0.15679E-01  0.13509E-01  0.10500E-01  0.70987E-02
  0.37998E-02  0.10111E-02 -0.11185E-02 -0.26733E-02 -0.37260E-02 -0.41851E-02
 -0.39458E-02 -0.31154E-02 -0.19600E-02 -0.63773E-03  0.89142E-03  0.26625E-02
 -0.84540E-02 -0.70801E-02 -0.55293E-02 -0.37976E-02 -0.20322E-02 -0.43220E-03
  0.94253E-03  0.21492E-02  0.31517E-02  0.37459E-02  0.37427E-02  0.31496E-02
  0.21039E-02  0.67797E-03 -0.11629E-02 -0.34060E-02 -0.58488E-02 -0.81218E-02
 -0.98130E-02 -0.10567E-01 -0.10136E-01 -0.84350E-02 -0.55926E-02 -0.19585E-02
  0.19584E-02  0.55925E-02  0.84349E-02  0.10136E-01  0.10567E-01  0.98131E-02
  0.81220E-02  0.58491E-02  0.34063E-02  0.11632E-02 -0.67763E-03 -0.21035E-02
 -0.31492E-02 -0.37424E-02 -0.37455E-02 -0.31514E-02 -0.21489E-02 -0.94226E-03
  0.43243E-03  0.20324E-02  0.37978E-02 -0.87249E-02 -0.76214E-02 -0.63303E-02
 -0.48179E-02 -0.31582E-02 -0.15448E-02 -0.12457E-03  0.11047E-02  0.21805E-02
  0.30130E-02  0.34107E-02  0.32600E-02  0.26208E-02  0.16329E-02  0.37666E-03
 -0.11342E-02 -0.28380E-02 -0.45341E-02 -0.59083E-02 -0.66420E-02 -0.65194E-02
 -0.54854E-02 -0.36541E-02 -0.12818E-02  0.12818E-02  0.36541E-02  0.54854E-02
  0.65195E-02  0.66422E-02  0.59085E-02  0.45343E-02  0.28383E-02  0.11345E-02
 -0.37632E-03 -0.16325E-02 -0.26204E-02 -0.32596E-02 -0.34104E-02 -0.30127E-02
 -0.21802E-02 -0.11045E-02  0.12475E-03  0.15450E-02  0.31583E-02  0.48179E-02
 -0.89243E-02 -0.81039E-02 -0.70719E-02 -0.58045E-02 -0.43109E-02 -0.27284E-02
 -0.12517E-02  0.23751E-04  0.11271E-02  0.20717E-02  0.27456E-02  0.29843E-02
  0.27273E-02  0.20640E-02  0.11312E-02  0.96350E-05 -0.12556E-02 -0.25577E-02
 -0.36859E-02 -0.43871E-02 -0.44672E-02 -0.38541E-02 -0.26104E-02 -0.92349E-03
  0.92363E-03  0.26106E-02  0.38543E-02  0.44675E-02  0.43873E-02  0.36862E-02
  0.25580E-02  0.12559E-02 -0.92903E-05 -0.11308E-02 -0.20636E-02 -0.27269E-02
 -0.29840E-02 -0.27453E-02 -0.20714E-02 -0.11269E-02 -0.23610E-04  0.12518E-02
  0.27284E-02  0.43108E-02  0.58044E-02 -0.91271E-02 -0.86351E-02 -0.78729E-02
 -0.68481E-02 -0.55416E-02 -0.40227E-02 -0.24826E-02 -0.11068E-02  0.53420E-04
  0.10412E-02  0.18453E-02  0.23461E-02  0.24189E-02  0.20513E-02  0.13369E-02
  0.38561E-03 -0.71707E-03 -0.18700E-02 -0.29132E-02 -0.36445E-02 -0.38733E-02
 -0.34708E-02 -0.24209E-02 -0.87040E-03  0.87062E-03  0.24211E-02  0.34710E-02
  0.38736E-02  0.36448E-02  0.29135E-02  0.18703E-02  0.71742E-03 -0.38524E-03
 -0.13365E-02 -0.20510E-02 -0.24185E-02 -0.23458E-02 -0.18451E-02 -0.10410E-02
 -0.53300E-04  0.11069E-02  0.24825E-02  0.40225E-02  0.55414E-02  0.68478E-02
 -0.93477E-02 -0.92637E-02 -0.88147E-02 -0.80268E-02 -0.68964E-02 -0.54570E-02
 -0.38646E-02 -0.23466E-02 -0.10538E-02  0.53642E-06  0.84975E-03  0.14609E-02
  0.17363E-02  0.16041E-02  0.10751E-02  0.22199E-03 -0.86406E-03 -0.20816E-02
 -0.32934E-02 -0.42942E-02 -0.48008E-02 -0.45117E-02 -0.32610E-02 -0.11946E-02
  0.11949E-02  0.32613E-02  0.45120E-02  0.48011E-02  0.42945E-02  0.32938E-02
  0.20820E-02  0.86442E-03 -0.22163E-03 -0.10747E-02 -0.16038E-02 -0.17360E-02
 -0.14606E-02 -0.84956E-03 -0.41376E-06  0.10538E-02  0.23465E-02  0.38644E-02
  0.54567E-02  0.68960E-02  0.80263E-02 -0.95422E-02 -0.99903E-02 -0.99418E-02
 -0.93938E-02 -0.83929E-02 -0.70105E-02 -0.53849E-02 -0.37300E-02 -0.22530E-02
 -0.10596E-02 -0.15295E-03  0.48489E-03  0.82687E-03  0.81330E-03  0.40634E-03
 -0.38436E-03 -0.15259E-02 -0.29845E-02 -0.46742E-02 -0.63273E-02 -0.74075E-02
 -0.72357E-02 -0.53667E-02 -0.19909E-02  0.19911E-02  0.53669E-02  0.72360E-02
  0.74078E-02  0.63276E-02  0.46745E-02  0.29849E-02  0.15263E-02  0.38471E-03
 -0.40600E-03 -0.81298E-03 -0.82660E-03 -0.48467E-03  0.15310E-03  0.10597E-02
  0.22529E-02  0.37298E-02  0.53845E-02  0.70100E-02  0.83922E-02  0.93930E-02
 -0.97047E-02 -0.10894E-01 -0.11395E-01 -0.11096E-01 -0.10115E-01 -0.86713E-02
 -0.69725E-02 -0.52058E-02 -0.35580E-02 -0.21855E-02 -0.11618E-02 -0.48074E-03
 -0.12314E-03 -0.10887E-03 -0.48378E-03 -0.12936E-02 -0.26060E-02 -0.45230E-02
 -0.70442E-02 -0.97774E-02 -0.11759E-01 -0.11716E-01 -0.87939E-02 -0.32799E-02
  0.32800E-02  0.87940E-02  0.11716E-01  0.11759E-01  0.97777E-02  0.70445E-02
  0.45233E-02  0.26063E-02  0.12939E-02  0.48410E-03  0.10915E-03  0.12338E-03
  0.48092E-03  0.11619E-02  0.21855E-02  0.35579E-02  0.52055E-02  0.69720E-02
  0.86706E-02  0.10114E-01  0.11095E-01 -0.97573E-02 -0.12036E-01 -0.13356E-01
 -0.13367E-01 -0.12255E-01 -0.10513E-01 -0.85729E-02 -0.66581E-02 -0.48806E-02
 -0.33572E-02 -0.21913E-02 -0.14117E-02 -0.99698E-03 -0.95031E-03 -0.13276E-02
 -0.22333E-02 -0.38526E-02 -0.64393E-02 -0.10063E-01 -0.14141E-01 -0.17179E-01
 -0.17219E-01 -0.12961E-01 -0.48393E-02  0.48393E-02  0.12961E-01  0.17219E-01
  0.17179E-01  0.14141E-01  0.10063E-01  0.64396E-02  0.38529E-02  0.22336E-02
  0.13279E-02  0.95057E-03  0.99719E-03  0.14119E-02  0.21914E-02  0.33572E-02
  0.48804E-02  0.66577E-02  0.85723E-02  0.10512E-01  0.12254E-01  0.13366E-01
 -0.91105E-02 -0.12946E-01 -0.15541E-01 -0.16112E-01 -0.14836E-01 -0.12571E-01
 -0.10153E-01 -0.79682E-02 -0.60657E-02 -0.44491E-02 -0.31760E-02 -0.22827E-02
 -0.17575E-02 -0.16109E-02 -0.19309E-02 -0.28947E-02 -0.47977E-02 -0.80016E-02
 -0.12587E-01 -0.17768E-01 -0.21610E-01 -0.21641E-01 -0.16266E-01 -0.60677E-02
  0.60675E-02  0.16266E-01  0.21641E-01  0.21610E-01  0.17768E-01  0.12588E-01
  0.80018E-02  0.47979E-02  0.28950E-02  0.19311E-02  0.16111E-02  0.17576E-02
  0.22828E-02  0.31760E-02  0.44490E-02  0.60654E-02  0.79677E-02  0.10152E-01
  0.12570E-01  0.14834E-01  0.16110E-01 -0.64442E-02 -0.12227E-01 -0.16690E-01
 -0.18371E-01 -0.17255E-01 -0.14537E-01 -0.11560E-01 -0.90174E-02 -0.69696E-02
 -0.52990E-02 -0.39734E-02 -0.30018E-02 -0.23644E-02 -0.20686E-02 -0.22226E-02
 -0.30532E-02 -0.49054E-02 -0.81545E-02 -0.12840E-01 -0.18097E-01 -0.21931E-01
 -0.21873E-01 -0.16386E-01 -0.61008E-02  0.61003E-02  0.16385E-01  0.21873E-01
  0.21931E-01  0.18097E-01  0.12840E-01  0.81546E-02  0.49056E-02  0.30534E-02
  0.22229E-02  0.20688E-02  0.23646E-02  0.30019E-02  0.39734E-02  0.52989E-02
  0.69694E-02  0.90170E-02  0.11559E-01  0.14536E-01  0.17254E-01  0.18369E-01
 -0.43480E-03 -0.81568E-02 -0.14952E-01 -0.18480E-01 -0.18264E-01 -0.15637E-01
 -0.12405E-01 -0.96361E-02 -0.74979E-02 -0.58102E-02 -0.44700E-02 -0.34593E-02
 -0.27404E-02 -0.22883E-02 -0.21762E-02 -0.25901E-02 -0.37948E-02 -0.60443E-02
 -0.93235E-02 -0.12970E-01 -0.15555E-01 -0.15381E-01 -0.11449E-01 -0.42484E-02
  0.42478E-02  0.11449E-01  0.15380E-01  0.15554E-01  0.12970E-01  0.93234E-02
  0.60443E-02  0.37949E-02  0.25902E-02  0.21764E-02  0.22885E-02  0.27405E-02
  0.34593E-02  0.44700E-02  0.58101E-02  0.74977E-02  0.96357E-02  0.12404E-01
  0.15636E-01  0.18263E-01  0.18478E-01  0.17800E-01  0.86308E-02 -0.17184E-02
 -0.94886E-02 -0.12863E-01 -0.12600E-01 -0.10691E-01 -0.86609E-02 -0.69846E-02
 -0.55722E-02 -0.43408E-02 -0.33210E-02 -0.25172E-02 -0.18755E-02 -0.13559E-02
 -0.94908E-03 -0.63373E-03 -0.36358E-03 -0.90668E-04  0.21288E-03  0.52170E-03
  0.72027E-03  0.64992E-03  0.26432E-03 -0.26440E-03 -0.64994E-03 -0.72020E-03
 -0.52157E-03 -0.21273E-03  0.90786E-04  0.36364E-03  0.63374E-03  0.94905E-03
  0.13558E-02  0.18754E-02  0.25171E-02  0.33210E-02  0.43407E-02  0.55721E-02
  0.69845E-02  0.86607E-02  0.10691E-01  0.12600E-01  0.12862E-01  0.94876E-02
  0.95851E-02 -0.65619E-03 -0.10820E-01 -0.17211E-01 -0.18549E-01 -0.16254E-01
 -0.12751E-01 -0.96595E-02 -0.73351E-02 -0.55398E-02 -0.41022E-02 -0.30137E-02
 -0.22623E-02 -0.18084E-02 -0.17001E-02 -0.21460E-02 -0.34879E-02 -0.60525E-02
 -0.98169E-02 -0.13997E-01 -0.16967E-01 -0.16843E-01 -0.12551E-01 -0.46580E-02
  0.46582E-02  0.12552E-01  0.16843E-01  0.16967E-01  0.13998E-01  0.98170E-02
  0.60525E-02  0.34879E-02  0.21459E-02  0.17000E-02  0.18083E-02  0.22622E-02
  0.30137E-02  0.41022E-02  0.55398E-02  0.73351E-02  0.96595E-02  0.12751E-01
  0.16254E-01  0.18549E-01  0.17211E-01 -0.25203E-03 -0.10192E-01 -0.18812E-01
 -0.23006E-01 -0.22201E-01 -0.18262E-01 -0.13683E-01 -0.99320E-02 -0.72032E-02
 -0.51688E-02 -0.36154E-02 -0.25020E-02 -0.18011E-02 -0.15018E-02 -0.17495E-02
 -0.29505E-02 -0.57627E-02 -0.10847E-01 -0.18222E-01 -0.26454E-01 -0.32440E-01
 -0.32479E-01 -0.24351E-01 -0.90659E-02  0.90664E-02  0.24351E-01  0.32479E-01
  0.32440E-01  0.26454E-01  0.18222E-01  0.10847E-01  0.57627E-02  0.29504E-02
  0.17494E-02  0.15017E-02  0.18010E-02  0.25019E-02  0.36153E-02  0.51689E-02
  0.72033E-02  0.99323E-02  0.13683E-01  0.18263E-01  0.22202E-01  0.23008E-01
 -0.81541E-02 -0.16520E-01 -0.22823E-01 -0.24828E-01 -0.22561E-01 -0.17945E-01
 -0.13157E-01 -0.93325E-02 -0.65210E-02 -0.44037E-02 -0.27994E-02 -0.16711E-02
 -0.99729E-03 -0.80406E-03 -0.12983E-02 -0.29757E-02 -0.66407E-02 -0.13139E-01
 -0.22552E-01 -0.33131E-01 -0.40951E-01 -0.41235E-01 -0.31033E-01 -0.11576E-01
  0.11577E-01  0.31034E-01  0.41235E-01  0.40952E-01  0.33131E-01  0.22552E-01
  0.13139E-01  0.66406E-02  0.29755E-02  0.12981E-02  0.80390E-03  0.99717E-03
  0.16710E-02  0.27994E-02  0.44038E-02  0.65212E-02  0.93330E-02  0.13158E-01