       #
       # Generated by the Wannier90 code http://www.wannier.org
       # On 29Dec2023 at 23:55:10 
       #
CRYSTAL
PRIMVEC
   4.1863376   0.0000000   0.0000000
   0.0000000   4.1863376   0.0000000
   0.0000000   0.0000000   4.1863376
CONVVEC
   4.1863376   0.0000000   0.0000000
   0.0000000   4.1863376   0.0000000
   0.0000000   0.0000000   4.1863376
PRIMCOORD
     8  1
O       0.0000000   0.0000000   0.0000000
O       0.0000000   2.0931688   2.0931688
O       2.0931688   0.0000000   2.0931688
O       2.0931688   2.0931688   0.0000000
Ni      0.0000000   0.0000000   2.0931688
Ni      2.0931688   0.0000000   0.0000000
Ni      0.0000000   2.0931688   0.0000000
Ni      2.0931688   2.0931688   2.0931688


BEGIN_BLOCK_DATAGRID_3D
3D_field
BEGIN_DATAGRID_3D_UNKNOWN
    45    45    45
   -0.093030   -0.093030   -0.093030
   4.0933079   0.0000000   0.0000000
   0.0000000   4.0933079   0.0000000
   0.0000000   0.0000000   4.0933079
  0.79955E-03  0.80263E-02  0.13761E-01  0.15894E-01  0.14285E-01  0.10497E-01
  0.63740E-02  0.29029E-02  0.15630E-03 -0.21155E-02 -0.40431E-02 -0.56076E-02
 -0.67525E-02 -0.73910E-02 -0.73001E-02 -0.60115E-02 -0.28680E-02  0.25593E-02
  0.97783E-02  0.17022E-01  0.21941E-01  0.23181E-01  0.21579E-01  0.19675E-01
  0.19675E-01  0.21579E-01  0.23181E-01  0.21941E-01  0.17022E-01  0.97783E-02
  0.25593E-02 -0.28680E-02 -0.60115E-02 -0.73002E-02 -0.73911E-02 -0.67526E-02
 -0.56076E-02 -0.40431E-02 -0.21155E-02  0.15626E-03  0.29029E-02  0.63740E-02
  0.10497E-01  0.14285E-01  0.15894E-01 -0.76175E-02 -0.46797E-03  0.63068E-02
  0.10169E-01  0.10367E-01  0.80198E-02  0.48603E-02  0.19931E-02 -0.35355E-03
 -0.23378E-02 -0.40511E-02 -0.54456E-02 -0.64394E-02 -0.69346E-02 -0.67067E-02
 -0.52792E-02 -0.19911E-02  0.35419E-02  0.10701E-01  0.17552E-01  0.21650E-01
  0.21745E-01  0.19001E-01  0.16379E-01  0.16379E-01  0.19001E-01  0.21745E-01
  0.21650E-01  0.17552E-01  0.10701E-01  0.35419E-02 -0.19911E-02 -0.52792E-02
 -0.67067E-02 -0.69346E-02 -0.64394E-02 -0.54456E-02 -0.40511E-02 -0.23378E-02
 -0.35358E-03  0.19931E-02  0.48602E-02  0.80197E-02  0.10367E-01  0.10169E-01
 -0.14703E-01 -0.85774E-02 -0.17039E-02  0.33283E-02  0.52774E-02  0.46671E-02
  0.28516E-02  0.87208E-03 -0.91877E-03 -0.25351E-02 -0.39823E-02 -0.51764E-02
 -0.60228E-02 -0.64289E-02 -0.61975E-02 -0.49116E-02 -0.20139E-02  0.27363E-02
  0.85923E-02  0.13601E-01  0.15489E-01  0.13358E-01  0.88041E-02  0.51686E-02
  0.51687E-02  0.88042E-02  0.13358E-01  0.15489E-01  0.13601E-01  0.85923E-02
  0.27363E-02 -0.20139E-02 -0.49116E-02 -0.61975E-02 -0.64290E-02 -0.60229E-02
 -0.51764E-02 -0.39824E-02 -0.25351E-02 -0.91879E-03  0.87207E-03  0.28516E-02
  0.46671E-02  0.52774E-02  0.33283E-02 -0.17831E-01 -0.13250E-01 -0.72440E-02
 -0.20630E-02  0.88213E-03  0.16095E-02  0.99525E-03 -0.12968E-03 -0.13746E-02
 -0.26287E-02 -0.38100E-02 -0.48058E-02 -0.55237E-02 -0.58877E-02 -0.57470E-02
 -0.47893E-02 -0.26293E-02  0.78648E-03  0.46277E-02  0.70811E-02  0.62443E-02
  0.16847E-02 -0.46279E-02 -0.91674E-02 -0.91674E-02 -0.46278E-02  0.16849E-02
  0.62444E-02  0.70812E-02  0.46278E-02  0.78652E-03 -0.26293E-02 -0.47893E-02
 -0.57470E-02 -0.58877E-02 -0.55237E-02 -0.48058E-02 -0.38100E-02 -0.26288E-02
 -0.13746E-02 -0.12968E-03  0.99526E-03  0.16095E-02  0.88220E-03 -0.20629E-02
 -0.16592E-01 -0.13532E-01 -0.89733E-02 -0.45877E-02 -0.16200E-02 -0.31860E-03
 -0.21997E-03 -0.76124E-03 -0.16005E-02 -0.25642E-02 -0.35166E-02 -0.43367E-02
 -0.49456E-02 -0.52880E-02 -0.52621E-02 -0.46696E-02 -0.33027E-02 -0.12646E-02
  0.62482E-03  0.82676E-03 -0.21013E-02 -0.81911E-02 -0.15354E-01 -0.20220E-01
 -0.20220E-01 -0.15353E-01 -0.81909E-02 -0.21012E-02  0.82687E-03  0.62489E-03
 -0.12646E-02 -0.33027E-02 -0.46696E-02 -0.52621E-02 -0.52880E-02 -0.49457E-02
 -0.43367E-02 -0.35166E-02 -0.25642E-02 -0.16005E-02 -0.76122E-03 -0.21994E-03
 -0.31854E-03 -0.16199E-02 -0.45876E-02 -0.12639E-01 -0.10727E-01 -0.76690E-02
 -0.45338E-02 -0.22101E-02 -0.98611E-03 -0.66818E-03 -0.93455E-03 -0.15374E-02
 -0.22996E-02 -0.30732E-02 -0.37490E-02 -0.42663E-02 -0.45857E-02 -0.46438E-02
 -0.43360E-02 -0.35893E-02 -0.25843E-02 -0.20221E-02 -0.30795E-02 -0.67552E-02
 -0.12864E-01 -0.19536E-01 -0.23934E-01 -0.23934E-01 -0.19536E-01 -0.12864E-01
 -0.67551E-02 -0.30794E-02 -0.20221E-02 -0.25843E-02 -0.35893E-02 -0.43360E-02
 -0.46438E-02 -0.45857E-02 -0.42663E-02 -0.37490E-02 -0.30733E-02 -0.22996E-02
 -0.15374E-02 -0.93453E-03 -0.66814E-03 -0.98604E-03 -0.22100E-02 -0.45337E-02
 -0.80956E-02 -0.69140E-02 -0.50480E-02 -0.30971E-02 -0.15877E-02 -0.73329E-03
 -0.48155E-03 -0.68123E-03 -0.11753E-02 -0.18119E-02 -0.24580E-02 -0.30265E-02
 -0.34729E-02 -0.37636E-02 -0.38564E-02 -0.37082E-02 -0.33258E-02 -0.28914E-02
 -0.29151E-02 -0.41908E-02 -0.73496E-02 -0.12176E-01 -0.17274E-01 -0.20587E-01
 -0.20587E-01 -0.17274E-01 -0.12176E-01 -0.73495E-02 -0.41908E-02 -0.29151E-02
 -0.28914E-02 -0.33258E-02 -0.37083E-02 -0.38564E-02 -0.37636E-02 -0.34729E-02
 -0.30266E-02 -0.24581E-02 -0.18119E-02 -0.11753E-02 -0.68120E-03 -0.48151E-03
 -0.73323E-03 -0.15876E-02 -0.30970E-02 -0.41812E-02 -0.34476E-02 -0.23792E-02
 -0.12838E-02 -0.43100E-03  0.48919E-04  0.14472E-03 -0.89346E-04 -0.55500E-03
 -0.11270E-02 -0.16954E-02 -0.21961E-02 -0.25944E-02 -0.28535E-02 -0.29361E-02
 -0.28326E-02 -0.25892E-02 -0.23534E-02 -0.24397E-02 -0.33080E-02 -0.53166E-02
 -0.83224E-02 -0.11474E-01 -0.13516E-01 -0.13516E-01 -0.11474E-01 -0.83224E-02
 -0.53166E-02 -0.33080E-02 -0.24397E-02 -0.23534E-02 -0.25892E-02 -0.28326E-02
 -0.29361E-02 -0.28536E-02 -0.25945E-02 -0.21961E-02 -0.16954E-02 -0.11270E-02
 -0.55500E-03 -0.89328E-04  0.14476E-03  0.48974E-04 -0.43092E-03 -0.12837E-02
 -0.10535E-02 -0.62422E-03 -0.55237E-04  0.50051E-03  0.91402E-03  0.11044E-02
  0.10343E-02  0.71695E-03  0.22585E-03 -0.33059E-03 -0.86357E-03 -0.13278E-02
 -0.16929E-02 -0.19136E-02 -0.19494E-02 -0.18056E-02 -0.15464E-02 -0.12854E-02
 -0.11935E-02 -0.14955E-02 -0.23718E-02 -0.37664E-02 -0.52694E-02 -0.62569E-02
 -0.62569E-02 -0.52694E-02 -0.37664E-02 -0.23718E-02 -0.14955E-02 -0.11935E-02
 -0.12854E-02 -0.15464E-02 -0.18056E-02 -0.19494E-02 -0.19137E-02 -0.16929E-02
 -0.13279E-02 -0.86358E-03 -0.33060E-03  0.22585E-03  0.71696E-03  0.10344E-02
  0.11044E-02  0.91408E-03  0.50059E-03  0.15382E-02  0.17409E-02  0.19818E-02
  0.21888E-02  0.23006E-02  0.22596E-02  0.20228E-02  0.15952E-02  0.10456E-02
  0.47162E-03 -0.54731E-04 -0.49966E-03 -0.83238E-03 -0.10014E-02 -0.96329E-03
 -0.72848E-03 -0.36551E-03  0.33235E-04  0.37299E-03  0.55207E-03  0.48094E-03
  0.15388E-03 -0.28921E-03 -0.60640E-03 -0.60640E-03 -0.28920E-03  0.15388E-03
  0.48094E-03  0.55206E-03  0.37298E-03  0.33216E-04 -0.36553E-03 -0.72850E-03
 -0.96332E-03 -0.10014E-02 -0.83241E-03 -0.49969E-03 -0.54751E-04  0.47161E-03
  0.10456E-02  0.15952E-02  0.20228E-02  0.22596E-02  0.23006E-02  0.21889E-02
  0.37307E-02  0.37614E-02  0.37663E-02  0.37210E-02  0.36004E-02  0.33617E-02
  0.29677E-02  0.24291E-02  0.18134E-02  0.12065E-02  0.66831E-03  0.23110E-03
 -0.68504E-04 -0.17694E-03 -0.54668E-04  0.28638E-03  0.78500E-03  0.13660E-02
  0.19631E-02  0.25110E-02  0.29401E-02  0.32035E-02  0.33136E-02  0.33372E-02
  0.33372E-02  0.33136E-02  0.32035E-02  0.29401E-02  0.25110E-02  0.19631E-02
  0.13660E-02  0.78497E-03  0.28635E-03 -0.54700E-04 -0.17697E-03 -0.68536E-04
  0.23107E-03  0.66828E-03  0.12065E-02  0.18134E-02  0.24291E-02  0.29677E-02
  0.33617E-02  0.36004E-02  0.37211E-02  0.54961E-02  0.53871E-02  0.52141E-02
  0.49831E-02  0.46884E-02  0.42970E-02  0.37808E-02  0.31563E-02  0.24854E-02
  0.18389E-02  0.12696E-02  0.81932E-03  0.53821E-03  0.48051E-03  0.67565E-03
  0.11089E-02  0.17336E-02  0.24951E-02  0.33366E-02  0.41846E-02  0.49469E-02
  0.55402E-02  0.59240E-02  0.61054E-02  0.61054E-02  0.59240E-02  0.55402E-02
  0.49469E-02  0.41846E-02  0.33366E-02  0.24951E-02  0.17335E-02  0.11089E-02
  0.67562E-03  0.48048E-03  0.53817E-03  0.81929E-03  0.12696E-02  0.18389E-02
  0.24854E-02  0.31563E-02  0.37808E-02  0.42970E-02  0.46884E-02  0.49831E-02
  0.67726E-02  0.65326E-02  0.62305E-02  0.58853E-02  0.54909E-02  0.50118E-02
  0.44233E-02  0.37448E-02  0.30291E-02  0.23329E-02  0.17075E-02  0.12121E-02
  0.91712E-03  0.88071E-03  0.11218E-02  0.16209E-02  0.23444E-02  0.32579E-02
  0.43103E-02  0.54098E-02  0.64305E-02  0.72536E-02  0.78093E-02  0.80827E-02
  0.80827E-02  0.78093E-02  0.72536E-02  0.64305E-02  0.54098E-02  0.43103E-02
  0.32579E-02  0.23443E-02  0.16209E-02  0.11218E-02  0.88067E-03  0.91708E-03
  0.12120E-02  0.17075E-02  0.23329E-02  0.30291E-02  0.37448E-02  0.44233E-02
  0.50118E-02  0.54909E-02  0.58853E-02  0.74775E-02  0.71064E-02  0.67322E-02
  0.63638E-02  0.59656E-02  0.54776E-02  0.48684E-02  0.41583E-02  0.33965E-02
  0.26335E-02  0.19264E-02  0.13547E-02  0.10103E-02  0.95864E-03  0.12140E-02
  0.17540E-02  0.25522E-02  0.35858E-02  0.48059E-02  0.61077E-02  0.73407E-02
  0.83572E-02  0.90606E-02  0.94142E-02  0.94142E-02  0.90606E-02  0.83572E-02
  0.73406E-02  0.61077E-02  0.48058E-02  0.35858E-02  0.25522E-02  0.17540E-02
  0.12140E-02  0.95860E-03  0.10102E-02  0.13547E-02  0.19263E-02  0.26335E-02
  0.33965E-02  0.41583E-02  0.48684E-02  0.54776E-02  0.59656E-02  0.63638E-02
  0.73908E-02  0.68884E-02  0.65268E-02  0.62726E-02  0.60153E-02  0.56347E-02
  0.50758E-02  0.43610E-02  0.35485E-02  0.27003E-02  0.18908E-02  0.12214E-02
  0.80075E-03  0.70133E-03  0.93917E-03  0.14950E-02  0.23473E-02  0.34750E-02
  0.48253E-02  0.62856E-02  0.76936E-02  0.88830E-02  0.97293E-02  0.10165E-01
  0.10165E-01  0.97293E-02  0.88830E-02  0.76936E-02  0.62856E-02  0.48253E-02
  0.34749E-02  0.23473E-02  0.14950E-02  0.93912E-03  0.70129E-03  0.80071E-03
  0.12214E-02  0.18908E-02  0.27002E-02  0.35485E-02  0.43610E-02  0.50758E-02
  0.56347E-02  0.60153E-02  0.62726E-02  0.60379E-02  0.53940E-02  0.51857E-02
  0.52848E-02  0.54275E-02  0.53681E-02  0.49978E-02  0.43436E-02  0.34943E-02
  0.25488E-02  0.16180E-02  0.83181E-03  0.31256E-03  0.13579E-03  0.32084E-03
  0.85763E-03  0.17329E-02  0.29247E-02  0.43725E-02  0.59571E-02  0.75123E-02
  0.88602E-02  0.98478E-02  0.10368E-01  0.10368E-01  0.98478E-02  0.88601E-02
  0.75122E-02  0.59571E-02  0.43724E-02  0.29247E-02  0.17329E-02  0.85759E-03
  0.32080E-03  0.13575E-03  0.31252E-03  0.83177E-03  0.16180E-02  0.25488E-02
  0.34943E-02  0.43436E-02  0.49977E-02  0.53681E-02  0.54275E-02  0.52848E-02
  0.27485E-02  0.19412E-02  0.21229E-02  0.29825E-02  0.39638E-02  0.45819E-02
  0.46278E-02  0.41470E-02  0.32966E-02  0.22473E-02  0.11693E-02  0.23449E-03
 -0.41564E-03 -0.70439E-03 -0.61256E-03 -0.14087E-03  0.71011E-03  0.19219E-02
  0.34278E-02  0.51036E-02  0.67827E-02  0.82793E-02  0.94101E-02  0.10021E-01
  0.10021E-01  0.94100E-02  0.82793E-02  0.67826E-02  0.51036E-02  0.34278E-02
  0.19218E-02  0.71007E-03 -0.14091E-03 -0.61261E-03 -0.70443E-03 -0.41569E-03
  0.23445E-03  0.11693E-02  0.22473E-02  0.32966E-02  0.41470E-02  0.46278E-02
  0.45818E-02  0.39637E-02  0.29824E-02 -0.29210E-02 -0.38803E-02 -0.29384E-02
 -0.72793E-03  0.16902E-02  0.34275E-02  0.41289E-02  0.39074E-02  0.30625E-02
  0.18831E-02  0.61608E-03 -0.51687E-03 -0.13464E-02 -0.17900E-02 -0.18330E-02
 -0.14727E-02 -0.69777E-03  0.48147E-03  0.19974E-02  0.37249E-02  0.55028E-02
  0.71412E-02  0.84227E-02  0.91330E-02  0.91330E-02  0.84227E-02  0.71412E-02
  0.55028E-02  0.37249E-02  0.19973E-02  0.48142E-03 -0.69782E-03 -0.14727E-02
 -0.18330E-02 -0.17901E-02 -0.13464E-02 -0.51691E-03  0.61604E-03  0.18831E-02
  0.30625E-02  0.39074E-02  0.41289E-02  0.34275E-02  0.16901E-02 -0.72799E-03
 -0.10482E-01 -0.11467E-01 -0.92750E-02 -0.50447E-02 -0.60325E-03  0.25789E-02
  0.39904E-02  0.39271E-02  0.29577E-02  0.15503E-02  0.25603E-04 -0.13640E-02
 -0.24264E-02 -0.30694E-02 -0.32835E-02 -0.30711E-02 -0.24150E-02 -0.13178E-02
  0.15570E-03  0.18868E-02  0.37297E-02  0.54992E-02  0.69401E-02  0.77624E-02
  0.77624E-02  0.69401E-02  0.54991E-02  0.37296E-02  0.18867E-02  0.15564E-03
 -0.13178E-02 -0.24150E-02 -0.30711E-02 -0.32836E-02 -0.30695E-02 -0.24264E-02
 -0.13640E-02  0.25567E-04  0.15503E-02  0.29577E-02  0.39270E-02  0.39904E-02
  0.25788E-02 -0.60333E-03 -0.50448E-02 -0.18140E-01 -0.18862E-01 -0.14919E-01
 -0.81480E-02 -0.13817E-02  0.32004E-02  0.49915E-02  0.46560E-02  0.32058E-02
  0.13561E-02 -0.52920E-03 -0.22276E-02 -0.35610E-02 -0.44360E-02 -0.48483E-02
 -0.48102E-02 -0.43067E-02 -0.33379E-02 -0.19667E-02 -0.29853E-03  0.15511E-02
  0.34159E-02  0.50058E-02  0.59418E-02  0.59418E-02  0.50057E-02  0.34159E-02
  0.15510E-02 -0.29859E-03 -0.19667E-02 -0.33380E-02 -0.43067E-02 -0.48103E-02
 -0.48484E-02 -0.44360E-02 -0.35611E-02 -0.22276E-02 -0.52923E-03  0.13561E-02
  0.32058E-02  0.46559E-02  0.49915E-02  0.32003E-02 -0.13818E-02 -0.81481E-02
 -0.23480E-01 -0.23550E-01 -0.17525E-01 -0.80749E-02  0.83849E-03  0.63104E-02
  0.77670E-02  0.64502E-02  0.39872E-02  0.13950E-02 -0.97110E-03 -0.30085E-02
 -0.46193E-02 -0.57343E-02 -0.63585E-02 -0.65141E-02 -0.61934E-02 -0.54021E-02
 -0.42056E-02 -0.26922E-02 -0.93235E-03  0.94620E-03  0.26311E-02  0.36559E-02
  0.36559E-02  0.26310E-02  0.94612E-03 -0.93243E-03 -0.26923E-02 -0.42057E-02
 -0.54022E-02 -0.61934E-02 -0.65141E-02 -0.63585E-02 -0.57344E-02 -0.46193E-02
 -0.30085E-02 -0.97113E-03  0.13950E-02  0.39872E-02  0.64502E-02  0.77669E-02
  0.63103E-02  0.83840E-03 -0.80750E-02 -0.25072E-01 -0.24180E-01 -0.16080E-01
 -0.42791E-02  0.61872E-02  0.11796E-01  0.12145E-01  0.91878E-02  0.52536E-02
  0.16755E-02 -0.12508E-02 -0.36194E-02 -0.54765E-02 -0.68090E-02 -0.76366E-02
 -0.79904E-02 -0.78715E-02 -0.72972E-02 -0.63411E-02 -0.50745E-02 -0.35136E-02
 -0.17308E-02 -0.39862E-04  0.10240E-02  0.10240E-02 -0.39933E-04 -0.17309E-02
 -0.35137E-02 -0.50746E-02 -0.63412E-02 -0.72972E-02 -0.78716E-02 -0.79904E-02
 -0.76366E-02 -0.68090E-02 -0.54765E-02 -0.36194E-02 -0.12508E-02  0.16755E-02
  0.52536E-02  0.91878E-02  0.12145E-01  0.11796E-01  0.61871E-02 -0.42792E-02
 -0.23705E-01 -0.21828E-01 -0.12060E-01  0.14118E-02  0.12721E-01  0.17916E-01
  0.16827E-01  0.12078E-01  0.66243E-02  0.20669E-02 -0.13788E-02 -0.40181E-02
 -0.60581E-02 -0.75548E-02 -0.85469E-02 -0.90714E-02 -0.91372E-02 -0.87748E-02
 -0.80688E-02 -0.70766E-02 -0.57644E-02 -0.41464E-02 -0.25211E-02 -0.14652E-02
 -0.14652E-02 -0.25212E-02 -0.41465E-02 -0.57645E-02 -0.70767E-02 -0.80688E-02
 -0.87748E-02 -0.91373E-02 -0.90714E-02 -0.85469E-02 -0.75549E-02 -0.60581E-02
 -0.40181E-02 -0.13788E-02  0.20669E-02  0.66243E-02  0.12078E-01  0.16827E-01
  0.17915E-01  0.12721E-01  0.14117E-02 -0.21912E-01 -0.19409E-01 -0.87145E-02
  0.56018E-02  0.17222E-01  0.21985E-01  0.19886E-01  0.13955E-01  0.75250E-02
  0.23484E-02 -0.14152E-02 -0.42086E-02 -0.63455E-02 -0.79304E-02 -0.90153E-02
 -0.96405E-02 -0.98197E-02 -0.95918E-02 -0.90493E-02 -0.82423E-02 -0.71062E-02
 -0.56171E-02 -0.40583E-02 -0.30234E-02 -0.30235E-02 -0.40584E-02 -0.56172E-02
 -0.71063E-02 -0.82424E-02 -0.90494E-02 -0.95918E-02 -0.98197E-02 -0.96406E-02
 -0.90153E-02 -0.79304E-02 -0.63455E-02 -0.42086E-02 -0.14152E-02  0.23484E-02
  0.75250E-02  0.13956E-01  0.19886E-01  0.21985E-01  0.17222E-01  0.56017E-02
 -0.21912E-01 -0.19409E-01 -0.87148E-02  0.56017E-02  0.17222E-01  0.21985E-01
  0.19886E-01  0.13956E-01  0.75250E-02  0.23485E-02 -0.14152E-02 -0.42085E-02
 -0.63455E-02 -0.79304E-02 -0.90153E-02 -0.96406E-02 -0.98198E-02 -0.95919E-02
 -0.90496E-02 -0.82427E-02 -0.71068E-02 -0.56181E-02 -0.40596E-02 -0.30249E-02
 -0.30249E-02 -0.40597E-02 -0.56182E-02 -0.71069E-02 -0.82428E-02 -0.90497E-02
 -0.95920E-02 -0.98198E-02 -0.96406E-02 -0.90153E-02 -0.79304E-02 -0.63455E-02
 -0.42085E-02 -0.14151E-02  0.23485E-02  0.75251E-02  0.13956E-01  0.19886E-01
  0.21985E-01  0.17222E-01  0.56017E-02 -0.23706E-01 -0.21829E-01 -0.12061E-01
  0.14115E-02  0.12721E-01  0.17916E-01  0.16828E-01  0.12078E-01  0.66245E-02
  0.20671E-02 -0.13786E-02 -0.40180E-02 -0.60580E-02 -0.75548E-02 -0.85469E-02
 -0.90715E-02 -0.91375E-02 -0.87752E-02 -0.80694E-02 -0.70777E-02 -0.57661E-02
 -0.41490E-02 -0.25244E-02 -0.14689E-02 -0.14690E-02 -0.25245E-02 -0.41491E-02
 -0.57662E-02 -0.70777E-02 -0.80695E-02 -0.87752E-02 -0.91375E-02 -0.90715E-02
 -0.85469E-02 -0.75548E-02 -0.60580E-02 -0.40180E-02 -0.13786E-02  0.20671E-02
  0.66246E-02  0.12078E-01  0.16828E-01  0.17916E-01  0.12721E-01  0.14116E-02
 -0.25074E-01 -0.24181E-01 -0.16080E-01 -0.42794E-02  0.61872E-02  0.11796E-01
  0.12145E-01  0.91882E-02  0.52540E-02  0.16758E-02 -0.12505E-02 -0.36192E-02
 -0.54764E-02 -0.68089E-02 -0.76366E-02 -0.79905E-02 -0.78718E-02 -0.72978E-02
 -0.63421E-02 -0.50760E-02 -0.35159E-02 -0.17341E-02 -0.44103E-04  0.10192E-02
  0.10192E-02 -0.44157E-04 -0.17342E-02 -0.35160E-02 -0.50760E-02 -0.63421E-02
 -0.72978E-02 -0.78719E-02 -0.79905E-02 -0.76366E-02 -0.68088E-02 -0.54763E-02
 -0.36191E-02 -0.12504E-02  0.16759E-02  0.52541E-02  0.91883E-02  0.12145E-01
  0.11796E-01  0.61873E-02 -0.42794E-02 -0.23482E-01 -0.23551E-01 -0.17525E-01
 -0.80751E-02  0.83872E-03  0.63109E-02  0.77675E-02  0.64508E-02  0.39877E-02
  0.13955E-02 -0.97072E-03 -0.30081E-02 -0.46190E-02 -0.57342E-02 -0.63585E-02
 -0.65142E-02 -0.61938E-02 -0.54028E-02 -0.42067E-02 -0.26938E-02 -0.93470E-03
  0.94295E-03  0.26270E-02  0.36513E-02  0.36513E-02  0.26270E-02  0.94291E-03
 -0.93474E-03 -0.26938E-02 -0.42067E-02 -0.54028E-02 -0.61938E-02 -0.65142E-02
 -0.63585E-02 -0.57342E-02 -0.46190E-02 -0.30081E-02 -0.97067E-03  0.13956E-02
  0.39878E-02  0.64508E-02  0.77676E-02  0.63109E-02  0.83879E-03 -0.80750E-02
 -0.18141E-01 -0.18863E-01 -0.14919E-01 -0.81479E-02 -0.13814E-02  0.32010E-02
  0.49922E-02  0.46566E-02  0.32064E-02  0.13566E-02 -0.52874E-03 -0.22272E-02
 -0.35607E-02 -0.44358E-02 -0.48483E-02 -0.48103E-02 -0.43070E-02 -0.33385E-02
 -0.19677E-02 -0.30001E-03  0.15490E-02  0.34132E-02  0.50024E-02  0.59380E-02
  0.59380E-02  0.50024E-02  0.34132E-02  0.15490E-02 -0.30002E-03 -0.19677E-02
 -0.33385E-02 -0.43070E-02 -0.48103E-02 -0.48482E-02 -0.44357E-02 -0.35607E-02
 -0.22271E-02 -0.52867E-03  0.13567E-02  0.32065E-02  0.46567E-02  0.49923E-02
  0.32011E-02 -0.13813E-02 -0.81479E-02 -0.10482E-01 -0.11467E-01 -0.92750E-02
 -0.50444E-02 -0.60278E-03  0.25795E-02  0.39911E-02  0.39278E-02  0.29583E-02
  0.15509E-02  0.26129E-04 -0.13636E-02 -0.24260E-02 -0.30692E-02 -0.32834E-02
 -0.30711E-02 -0.24152E-02 -0.13183E-02  0.15484E-03  0.18855E-02  0.37280E-02
  0.54970E-02  0.69376E-02  0.77596E-02  0.77596E-02  0.69376E-02  0.54970E-02
  0.37280E-02  0.18855E-02  0.15485E-03 -0.13183E-02 -0.24152E-02 -0.30711E-02
 -0.32833E-02 -0.30691E-02 -0.24260E-02 -0.13635E-02  0.26201E-04  0.15510E-02
  0.29584E-02  0.39278E-02  0.39912E-02  0.25796E-02 -0.60270E-03 -0.50444E-02
 -0.29211E-02 -0.38802E-02 -0.29382E-02 -0.72754E-03  0.16907E-02  0.34281E-02
  0.41296E-02  0.39081E-02  0.30632E-02  0.18837E-02  0.61666E-03 -0.51636E-03
 -0.13459E-02 -0.17897E-02 -0.18328E-02 -0.14726E-02 -0.69791E-03  0.48109E-03
  0.19967E-02  0.37239E-02  0.55015E-02  0.71396E-02  0.84208E-02  0.91310E-02
  0.91310E-02  0.84208E-02  0.71396E-02  0.55015E-02  0.37240E-02  0.19967E-02
  0.48112E-03 -0.69787E-03 -0.14726E-02 -0.18327E-02 -0.17897E-02 -0.13458E-02
 -0.51629E-03  0.61674E-03  0.18838E-02  0.30633E-02  0.39082E-02  0.41297E-02
  0.34282E-02  0.16908E-02 -0.72748E-03  0.27487E-02  0.19415E-02  0.21232E-02
  0.29829E-02  0.39643E-02  0.45825E-02  0.46285E-02  0.41477E-02  0.32973E-02
  0.22479E-02  0.11699E-02  0.23506E-03 -0.41515E-03 -0.70398E-03 -0.61227E-03
 -0.14071E-03  0.71011E-03  0.19217E-02  0.34274E-02  0.51029E-02  0.67818E-02
  0.82781E-02  0.94087E-02  0.10019E-01  0.10019E-01  0.94087E-02  0.82782E-02
  0.67818E-02  0.51030E-02  0.34274E-02  0.19217E-02  0.71015E-03 -0.14066E-03
 -0.61221E-03 -0.70392E-03 -0.41508E-03  0.23513E-03  0.11700E-02  0.22480E-02
  0.32974E-02  0.41478E-02  0.46286E-02  0.45826E-02  0.39644E-02  0.29830E-02
  0.60382E-02  0.53943E-02  0.51860E-02  0.52853E-02  0.54280E-02  0.53687E-02
  0.49984E-02  0.43443E-02  0.34950E-02  0.25495E-02  0.16187E-02  0.83241E-03
  0.31311E-03  0.13627E-03  0.32123E-03  0.85790E-03  0.17331E-02  0.29247E-02
  0.43723E-02  0.59567E-02  0.75117E-02  0.88594E-02  0.98470E-02  0.10368E-01
  0.10368E-01  0.98470E-02  0.88594E-02  0.75117E-02  0.59567E-02  0.43723E-02
  0.29247E-02  0.17331E-02  0.85795E-03  0.32129E-03  0.13633E-03  0.31318E-03
  0.83248E-03  0.16188E-02  0.25496E-02  0.34950E-02  0.43443E-02  0.49985E-02
  0.53687E-02  0.54281E-02  0.52853E-02  0.73910E-02  0.68886E-02  0.65272E-02
  0.62730E-02  0.60158E-02  0.56352E-02  0.50764E-02  0.43616E-02  0.35491E-02
  0.27009E-02  0.18914E-02  0.12221E-02  0.80134E-03  0.70187E-03  0.93963E-03
  0.14954E-02  0.23476E-02  0.34751E-02  0.48253E-02  0.62855E-02  0.76933E-02
  0.88826E-02  0.97289E-02  0.10164E-01  0.10164E-01  0.97289E-02  0.88827E-02
  0.76934E-02  0.62855E-02  0.48254E-02  0.34752E-02  0.23476E-02  0.14954E-02
  0.93970E-03  0.70194E-03  0.80141E-03  0.12221E-02  0.18915E-02  0.27010E-02
  0.35492E-02  0.43617E-02  0.50765E-02  0.56353E-02  0.60158E-02  0.62731E-02
  0.74777E-02  0.71066E-02  0.67324E-02  0.63640E-02  0.59659E-02  0.54780E-02
  0.48689E-02  0.41589E-02  0.33971E-02  0.26341E-02  0.19270E-02  0.13554E-02
  0.10109E-02  0.95922E-03  0.12146E-02  0.17545E-02  0.25526E-02  0.35861E-02
  0.48061E-02  0.61078E-02  0.73407E-02  0.83572E-02  0.90605E-02  0.94140E-02
  0.94140E-02  0.90605E-02  0.83572E-02  0.73407E-02  0.61078E-02  0.48061E-02
  0.35861E-02  0.25527E-02  0.17545E-02  0.12146E-02  0.95929E-03  0.10110E-02
  0.13554E-02  0.19271E-02  0.26342E-02  0.33971E-02  0.41590E-02  0.48689E-02
  0.54781E-02  0.59660E-02  0.63641E-02  0.67726E-02  0.65326E-02  0.62306E-02
  0.58854E-02  0.54911E-02  0.50120E-02  0.44237E-02  0.37452E-02  0.30296E-02
  0.23335E-02  0.17081E-02  0.12127E-02  0.91775E-03  0.88133E-03  0.11224E-02
  0.16214E-02  0.23449E-02  0.32584E-02  0.43106E-02  0.54101E-02  0.64307E-02
  0.72538E-02  0.78094E-02  0.80828E-02  0.80828E-02  0.78094E-02  0.72538E-02
  0.64308E-02  0.54101E-02  0.43107E-02  0.32584E-02  0.23449E-02  0.16215E-02
  0.11225E-02  0.88140E-03  0.91782E-03  0.12128E-02  0.17082E-02  0.23336E-02
  0.30297E-02  0.37453E-02  0.44237E-02  0.50121E-02  0.54911E-02  0.58854E-02
  0.54959E-02  0.53869E-02  0.52140E-02  0.49830E-02  0.46884E-02  0.42971E-02
  0.37810E-02  0.31567E-02  0.24858E-02  0.18394E-02  0.12702E-02  0.81993E-03
  0.53884E-03  0.48116E-03  0.67629E-03  0.11095E-02  0.17342E-02  0.24957E-02
  0.33371E-02  0.41851E-02  0.49473E-02  0.55405E-02  0.59243E-02  0.61057E-02
  0.61057E-02  0.59244E-02  0.55405E-02  0.49473E-02  0.41851E-02  0.33372E-02
  0.24957E-02  0.17342E-02  0.11096E-02  0.67635E-03  0.48122E-03  0.53891E-03
  0.82000E-03  0.12702E-02  0.18395E-02  0.24859E-02  0.31567E-02  0.37811E-02
  0.42972E-02  0.46884E-02  0.49830E-02  0.37303E-02  0.37610E-02  0.37659E-02
  0.37207E-02  0.36002E-02  0.33616E-02  0.29678E-02  0.24293E-02  0.18137E-02
  0.12069E-02  0.66881E-03  0.23167E-03 -0.67882E-04 -0.17629E-03 -0.54004E-04
  0.28704E-03  0.78564E-03  0.13667E-02  0.19637E-02  0.25116E-02  0.29406E-02
  0.32039E-02  0.33141E-02  0.33377E-02  0.33377E-02  0.33141E-02  0.32040E-02
  0.29406E-02  0.25116E-02  0.19638E-02  0.13667E-02  0.78569E-03  0.28709E-03
 -0.53944E-04 -0.17623E-03 -0.67819E-04  0.23173E-03  0.66888E-03  0.12070E-02
  0.18137E-02  0.24293E-02  0.29678E-02  0.33616E-02  0.36002E-02  0.37207E-02
  0.15374E-02  0.17401E-02  0.19810E-02  0.21882E-02  0.23001E-02  0.22593E-02
  0.20227E-02  0.15952E-02  0.10458E-02  0.47195E-03 -0.54292E-04 -0.49914E-03
 -0.83179E-03 -0.10008E-02 -0.96262E-03 -0.72779E-03 -0.36483E-03  0.33900E-04
  0.37363E-03  0.55267E-03  0.48151E-03  0.15441E-03 -0.28869E-03 -0.60590E-03
 -0.60590E-03 -0.28869E-03  0.15442E-03  0.48153E-03  0.55270E-03  0.37366E-03
  0.33940E-04 -0.36478E-03 -0.72774E-03 -0.96257E-03 -0.10007E-02 -0.83173E-03
 -0.49908E-03 -0.54237E-04  0.47200E-03  0.10458E-02  0.15953E-02  0.20227E-02
  0.22593E-02  0.23001E-02  0.21881E-02 -0.10547E-02 -0.62547E-03 -0.56414E-04
  0.49949E-03  0.91321E-03  0.11038E-02  0.10340E-02  0.71684E-03  0.22593E-03
 -0.33035E-03 -0.86320E-03 -0.13274E-02 -0.16923E-02 -0.19130E-02 -0.19487E-02
 -0.18049E-02 -0.15457E-02 -0.12848E-02 -0.11929E-02 -0.14949E-02 -0.23712E-02
 -0.37658E-02 -0.52689E-02 -0.62564E-02 -0.62564E-02 -0.52690E-02 -0.37659E-02
 -0.23712E-02 -0.14949E-02 -0.11928E-02 -0.12847E-02 -0.15457E-02 -0.18049E-02
 -0.19487E-02 -0.19130E-02 -0.16923E-02 -0.13273E-02 -0.86315E-03 -0.33031E-03
  0.22597E-03  0.71687E-03  0.10340E-02  0.11038E-02  0.91320E-03  0.49947E-03
 -0.41829E-02 -0.34494E-02 -0.23809E-02 -0.12853E-02 -0.43216E-03  0.48080E-04
  0.14419E-03 -0.89612E-04 -0.55504E-03 -0.11269E-02 -0.16951E-02 -0.21956E-02
 -0.25939E-02 -0.28530E-02 -0.29355E-02 -0.28319E-02 -0.25885E-02 -0.23527E-02
 -0.24391E-02 -0.33074E-02 -0.53161E-02 -0.83220E-02 -0.11473E-01 -0.13516E-01
 -0.13516E-01 -0.11474E-01 -0.83220E-02 -0.53161E-02 -0.33074E-02 -0.24391E-02
 -0.23527E-02 -0.25885E-02 -0.28319E-02 -0.29354E-02 -0.28529E-02 -0.25939E-02
 -0.21956E-02 -0.16950E-02 -0.11268E-02 -0.55501E-03 -0.89596E-04  0.14419E-03
  0.48067E-04 -0.43219E-03 -0.12853E-02 -0.80980E-02 -0.69164E-02 -0.50504E-02
 -0.30991E-02 -0.15892E-02 -0.73439E-03 -0.48226E-03 -0.68162E-03 -0.11754E-02
 -0.18118E-02 -0.24578E-02 -0.30262E-02 -0.34724E-02 -0.37631E-02 -0.38558E-02
 -0.37077E-02 -0.33252E-02 -0.28908E-02 -0.29146E-02 -0.41904E-02 -0.73492E-02
 -0.12176E-01 -0.17274E-01 -0.20587E-01 -0.20587E-01 -0.17274E-01 -0.12176E-01
 -0.73493E-02 -0.41904E-02 -0.29146E-02 -0.28908E-02 -0.33252E-02 -0.37076E-02
 -0.38558E-02 -0.37630E-02 -0.34724E-02 -0.30261E-02 -0.24578E-02 -0.18118E-02
 -0.11754E-02 -0.68162E-03 -0.48227E-03 -0.73442E-03 -0.15892E-02 -0.30991E-02
 -0.12642E-01 -0.10730E-01 -0.76720E-02 -0.45363E-02 -0.22120E-02 -0.98742E-03
 -0.66902E-03 -0.93503E-03 -0.15376E-02 -0.22996E-02 -0.30731E-02 -0.37487E-02
 -0.42659E-02 -0.45852E-02 -0.46433E-02 -0.43355E-02 -0.35888E-02 -0.25839E-02
 -0.20218E-02 -0.30793E-02 -0.67552E-02 -0.12864E-01 -0.19537E-01 -0.23935E-01
 -0.23935E-01 -0.19537E-01 -0.12865E-01 -0.67552E-02 -0.30794E-02 -0.20218E-02
 -0.25839E-02 -0.35887E-02 -0.43355E-02 -0.46433E-02 -0.45852E-02 -0.42659E-02
 -0.37486E-02 -0.30730E-02 -0.22995E-02 -0.15376E-02 -0.93503E-03 -0.66904E-03
 -0.98746E-03 -0.22121E-02 -0.45364E-02 -0.16596E-01 -0.13535E-01 -0.89767E-02
 -0.45905E-02 -0.16221E-02 -0.31999E-03 -0.22084E-03 -0.76173E-03 -0.16007E-02
 -0.25642E-02 -0.35164E-02 -0.43364E-02 -0.49453E-02 -0.52876E-02 -0.52617E-02
 -0.46692E-02 -0.33023E-02 -0.12643E-02  0.62500E-03  0.82676E-03 -0.21015E-02
 -0.81915E-02 -0.15354E-01 -0.20220E-01 -0.20220E-01 -0.15354E-01 -0.81916E-02
 -0.21016E-02  0.82667E-03  0.62495E-03 -0.12643E-02 -0.33023E-02 -0.46692E-02
 -0.52616E-02 -0.52876E-02 -0.49453E-02 -0.43364E-02 -0.35164E-02 -0.25642E-02
 -0.16007E-02 -0.76173E-03 -0.22086E-03 -0.32004E-03 -0.16221E-02 -0.45906E-02
 -0.17835E-01 -0.13253E-01 -0.72472E-02 -0.20656E-02  0.88028E-03  0.16083E-02
  0.99450E-03 -0.13009E-03 -0.13747E-02 -0.26288E-02 -0.38099E-02 -0.48055E-02
 -0.55234E-02 -0.58874E-02 -0.57467E-02 -0.47890E-02 -0.26290E-02  0.78665E-03
  0.46277E-02  0.70809E-02  0.62438E-02  0.16841E-02 -0.46287E-02 -0.91684E-02
 -0.91684E-02 -0.46288E-02  0.16839E-02  0.62437E-02  0.70808E-02  0.46277E-02
  0.78663E-03 -0.26290E-02 -0.47890E-02 -0.57467E-02 -0.58873E-02 -0.55233E-02
 -0.48055E-02 -0.38099E-02 -0.26287E-02 -0.13747E-02 -0.13010E-03  0.99447E-03
  0.16082E-02  0.88021E-03 -0.20657E-02  0.10922E-02  0.83587E-02  0.14013E-01
  0.15873E-01  0.13843E-01  0.96085E-02  0.51281E-02  0.14250E-02 -0.14656E-02
 -0.38462E-02 -0.58695E-02 -0.75050E-02 -0.86772E-02 -0.92913E-02 -0.91137E-02
 -0.76236E-02 -0.40378E-02  0.22568E-02  0.10932E-01  0.20252E-01  0.27683E-01
  0.31478E-01  0.31973E-01  0.31251E-01  0.31251E-01  0.31972E-01  0.31478E-01
  0.27683E-01  0.20252E-01  0.10932E-01  0.22567E-02 -0.40378E-02 -0.76236E-02
 -0.91138E-02 -0.92913E-02 -0.86772E-02 -0.75050E-02 -0.58695E-02 -0.38462E-02
 -0.14656E-02  0.14250E-02  0.51281E-02  0.96084E-02  0.13843E-01  0.15873E-01
 -0.74455E-02 -0.26247E-03  0.64751E-02  0.10132E-01  0.99704E-02  0.72214E-02
  0.37296E-02  0.63991E-03 -0.18504E-02 -0.39453E-02 -0.57523E-02 -0.72138E-02
 -0.82382E-02 -0.87308E-02 -0.84628E-02 -0.69135E-02 -0.33294E-02  0.27757E-02
  0.10825E-01  0.18809E-01  0.24100E-01  0.25237E-01  0.23229E-01  0.20978E-01
  0.20978E-01  0.23229E-01  0.25237E-01  0.24100E-01  0.18809E-01  0.10825E-01
  0.27757E-02 -0.33295E-02 -0.69135E-02 -0.84628E-02 -0.87309E-02 -0.82382E-02
 -0.72138E-02 -0.57524E-02 -0.39453E-02 -0.18505E-02  0.63989E-03  0.37296E-02
  0.72213E-02  0.99704E-02  0.10132E-01 -0.14606E-01 -0.84922E-02 -0.16464E-02
  0.32363E-02  0.49062E-02  0.39704E-02  0.18753E-02 -0.30460E-03 -0.22400E-02
 -0.39758E-02 -0.55237E-02 -0.67901E-02 -0.76784E-02 -0.81042E-02 -0.78697E-02
 -0.65316E-02 -0.34969E-02  0.14713E-02  0.75344E-02  0.12571E-01  0.14156E-01
  0.11395E-01  0.61065E-02  0.19739E-02  0.19739E-02  0.61065E-02  0.11395E-01
  0.14156E-01  0.12571E-01  0.75344E-02  0.14713E-02 -0.34969E-02 -0.65316E-02
 -0.78697E-02 -0.81043E-02 -0.76784E-02 -0.67901E-02 -0.55238E-02 -0.39758E-02
 -0.22400E-02 -0.30460E-03  0.18754E-02  0.39704E-02  0.49062E-02  0.32363E-02
 -0.17635E-01 -0.13122E-01 -0.71680E-02 -0.21156E-02  0.60682E-03  0.10735E-02
  0.22466E-03 -0.10875E-02 -0.24866E-02 -0.38764E-02 -0.51716E-02 -0.62513E-02
 -0.70239E-02 -0.74195E-02 -0.72863E-02 -0.63069E-02 -0.41189E-02 -0.76707E-03
  0.27257E-02  0.43211E-02  0.20117E-02 -0.44559E-02 -0.12613E-01 -0.18298E-01
 -0.18298E-01 -0.12613E-01 -0.44558E-02  0.20118E-02  0.43212E-02  0.27257E-02
 -0.76706E-03 -0.41189E-02 -0.63069E-02 -0.72864E-02 -0.74196E-02 -0.70239E-02
 -0.62513E-02 -0.51716E-02 -0.38764E-02 -0.24866E-02 -0.10875E-02  0.22469E-03