       #
       # Generated by the Wannier90 code http://www.wannier.org
       # On 12Dec2023 at 23:35:55 
       #
CRYSTAL
PRIMVEC
   3.4751459   0.0000000   0.0000000
   0.0000000   3.4751459   0.0000000
   0.0000000   0.0000000   3.4751459
CONVVEC
   3.4751459   0.0000000   0.0000000
   0.0000000   3.4751459   0.0000000
   0.0000000   0.0000000   3.4751459
PRIMCOORD
     4  1
Ni      1.7375729   1.7375729   1.7375729
Ni      1.7375729   0.0000000   0.0000000
Ni      0.0000000   1.7375729   0.0000000
Ni      0.0000000   0.0000000   1.7375729


BEGIN_BLOCK_DATAGRID_3D
3D_field
BEGIN_DATAGRID_3D_UNKNOWN
    30    30    30
   -0.115838   -0.115838   -0.115838
   3.3593077   0.0000000   0.0000000
   0.0000000   3.3593077   0.0000000
   0.0000000   0.0000000   3.3593077
 -0.26170E-01 -0.28148E-01 -0.28689E-01 -0.27412E-01 -0.24937E-01 -0.22005E-01
 -0.18759E-01 -0.15044E-01 -0.10715E-01 -0.43127E-02  0.85560E-02  0.32937E-01
  0.67126E-01  0.96852E-01  0.10043E+00  0.64903E-01  0.27090E-08 -0.64903E-01
 -0.10043E+00 -0.96852E-01 -0.67126E-01 -0.32937E-01 -0.85560E-02  0.43127E-02
  0.10715E-01  0.15044E-01  0.18759E-01  0.22005E-01  0.24937E-01  0.27412E-01
 -0.28148E-01 -0.29068E-01 -0.28027E-01 -0.25625E-01 -0.22987E-01 -0.20782E-01
 -0.18866E-01 -0.16764E-01 -0.14073E-01 -0.98086E-02 -0.15754E-02  0.13102E-01
  0.32872E-01  0.49781E-01  0.52322E-01  0.33936E-01  0.17225E-09 -0.33936E-01
 -0.52322E-01 -0.49781E-01 -0.32872E-01 -0.13102E-01  0.15754E-02  0.98086E-02
  0.14073E-01  0.16764E-01  0.18866E-01  0.20782E-01  0.22987E-01  0.25625E-01
 -0.28689E-01 -0.28027E-01 -0.25900E-01 -0.23528E-01 -0.21777E-01 -0.20663E-01
 -0.19655E-01 -0.18256E-01 -0.16300E-01 -0.13875E-01 -0.11183E-01 -0.85535E-02
 -0.63992E-02 -0.48802E-02 -0.36280E-02 -0.20501E-02 -0.13629E-08  0.20501E-02
  0.36280E-02  0.48802E-02  0.63992E-02  0.85535E-02  0.11183E-01  0.13875E-01
  0.16300E-01  0.18256E-01  0.19655E-01  0.20663E-01  0.21777E-01  0.23528E-01
 -0.27412E-01 -0.25625E-01 -0.23528E-01 -0.22201E-01 -0.21607E-01 -0.20971E-01
 -0.19691E-01 -0.17759E-01 -0.15623E-01 -0.14272E-01 -0.15616E-01 -0.21788E-01
 -0.32461E-01 -0.42276E-01 -0.42419E-01 -0.27150E-01 -0.13520E-08  0.27150E-01
  0.42419E-01  0.42276E-01  0.32461E-01  0.21788E-01  0.15616E-01  0.14272E-01
  0.15623E-01  0.17759E-01  0.19691E-01  0.20971E-01  0.21607E-01  0.22201E-01
 -0.24937E-01 -0.22987E-01 -0.21777E-01 -0.21607E-01 -0.21510E-01 -0.20339E-01
 -0.17880E-01 -0.14889E-01 -0.12372E-01 -0.11492E-01 -0.14289E-01 -0.23212E-01
 -0.37851E-01 -0.51453E-01 -0.52686E-01 -0.34040E-01 -0.57276E-09  0.34040E-01
  0.52686E-01  0.51453E-01  0.37851E-01  0.23212E-01  0.14289E-01  0.11492E-01
  0.12372E-01  0.14889E-01  0.17880E-01  0.20339E-01  0.21510E-01  0.21607E-01
 -0.22005E-01 -0.20782E-01 -0.20663E-01 -0.20971E-01 -0.20339E-01 -0.17933E-01
 -0.14201E-01 -0.10489E-01 -0.80022E-02 -0.74466E-02 -0.98497E-02 -0.16831E-01
 -0.28336E-01 -0.39429E-01 -0.41061E-01 -0.26801E-01  0.85045E-10  0.26801E-01
  0.41061E-01  0.39429E-01  0.28336E-01  0.16831E-01  0.98497E-02  0.74466E-02
  0.80022E-02  0.10489E-01  0.14201E-01  0.17933E-01  0.20339E-01  0.20971E-01
 -0.18759E-01 -0.18866E-01 -0.19655E-01 -0.19691E-01 -0.17880E-01 -0.14201E-01
 -0.96781E-02 -0.57957E-02 -0.36189E-02 -0.33251E-02 -0.48081E-02 -0.85133E-02
 -0.14653E-01 -0.20987E-01 -0.22450E-01 -0.14918E-01  0.46462E-09  0.14918E-01
  0.22450E-01  0.20987E-01  0.14653E-01  0.85133E-02  0.48081E-02  0.33251E-02
  0.36189E-02  0.57957E-02  0.96781E-02  0.14201E-01  0.17880E-01  0.19691E-01
 -0.15044E-01 -0.16764E-01 -0.18256E-01 -0.17759E-01 -0.14889E-01 -0.10489E-01
 -0.57957E-02 -0.19532E-02  0.25738E-03  0.78159E-03  0.17342E-03 -0.12156E-02
 -0.35278E-02 -0.63187E-02 -0.76476E-02 -0.54234E-02  0.83734E-09  0.54234E-02
  0.76476E-02  0.63187E-02  0.35278E-02  0.12156E-02 -0.17342E-03 -0.78159E-03
 -0.25737E-03  0.19532E-02  0.57957E-02  0.10489E-01  0.14889E-01  0.17759E-01
 -0.10715E-01 -0.14073E-01 -0.16300E-01 -0.15623E-01 -0.12372E-01 -0.80022E-02
 -0.36189E-02  0.25738E-03  0.31634E-02  0.47459E-02  0.51913E-02  0.49685E-02
  0.41723E-02  0.26914E-02  0.99759E-03  0.26992E-04  0.13067E-08 -0.26989E-04
 -0.99759E-03 -0.26914E-02 -0.41723E-02 -0.49685E-02 -0.51913E-02 -0.47459E-02
 -0.31634E-02 -0.25737E-03  0.36189E-02  0.80022E-02  0.12372E-01  0.15623E-01
 -0.43127E-02 -0.98086E-02 -0.13875E-01 -0.14272E-01 -0.11492E-01 -0.74466E-02
 -0.33251E-02  0.78159E-03  0.47459E-02  0.78987E-02  0.97095E-02  0.10247E-01
  0.97361E-02  0.81915E-02  0.57448E-02  0.28782E-02  0.17604E-08 -0.28782E-02
 -0.57448E-02 -0.81915E-02 -0.97361E-02 -0.10247E-01 -0.97094E-02 -0.78987E-02
 -0.47459E-02 -0.78159E-03  0.33251E-02  0.74466E-02  0.11492E-01  0.14272E-01
  0.85560E-02 -0.15754E-02 -0.11183E-01 -0.15616E-01 -0.14289E-01 -0.98497E-02
 -0.48081E-02  0.17342E-03  0.51913E-02  0.97095E-02  0.12789E-01  0.14006E-01
  0.13539E-01  0.11649E-01  0.85266E-02  0.44903E-02  0.20943E-08 -0.44903E-02
 -0.85266E-02 -0.11649E-01 -0.13539E-01 -0.14006E-01 -0.12789E-01 -0.97094E-02
 -0.51913E-02 -0.17342E-03  0.48081E-02  0.98497E-02  0.14289E-01  0.15616E-01
  0.32937E-01  0.13102E-01 -0.85535E-02 -0.21788E-01 -0.23212E-01 -0.16831E-01
 -0.85133E-02 -0.12156E-02  0.49685E-02  0.10247E-01  0.14006E-01  0.15621E-01
  0.15166E-01  0.13080E-01  0.96733E-02  0.51704E-02  0.22202E-08 -0.51704E-02
 -0.96733E-02 -0.13080E-01 -0.15166E-01 -0.15621E-01 -0.14006E-01 -0.10247E-01
 -0.49685E-02  0.12156E-02  0.85133E-02  0.16831E-01  0.23212E-01  0.21788E-01
  0.67126E-01  0.32872E-01 -0.63992E-02 -0.32461E-01 -0.37851E-01 -0.28336E-01
 -0.14653E-01 -0.35278E-02  0.41723E-02  0.97361E-02  0.13539E-01  0.15166E-01
  0.14630E-01  0.12487E-01  0.91878E-02  0.49182E-02  0.20524E-08 -0.49182E-02
 -0.91878E-02 -0.12487E-01 -0.14630E-01 -0.15166E-01 -0.13539E-01 -0.97361E-02
 -0.41723E-02  0.35278E-02  0.14653E-01  0.28336E-01  0.37851E-01  0.32461E-01
  0.96852E-01  0.49781E-01 -0.48802E-02 -0.42276E-01 -0.51453E-01 -0.39429E-01
 -0.20987E-01 -0.63187E-02  0.26914E-02  0.81915E-02  0.11649E-01  0.13080E-01
  0.12487E-01  0.10453E-01  0.75540E-02  0.40044E-02  0.17225E-08 -0.40044E-02
 -0.75540E-02 -0.10453E-01 -0.12487E-01 -0.13080E-01 -0.11649E-01 -0.81915E-02
 -0.26914E-02  0.63187E-02  0.20987E-01  0.39429E-01  0.51453E-01  0.42276E-01
  0.10043E+00  0.52322E-01 -0.36280E-02 -0.42419E-01 -0.52686E-01 -0.41061E-01
 -0.22450E-01 -0.76476E-02  0.99759E-03  0.57448E-02  0.85266E-02  0.96733E-02
  0.91878E-02  0.75540E-02  0.53414E-02  0.27880E-02  0.16370E-08 -0.27880E-02
 -0.53414E-02 -0.75540E-02 -0.91878E-02 -0.96733E-02 -0.85266E-02 -0.57448E-02
 -0.99759E-03  0.76476E-02  0.22450E-01  0.41061E-01  0.52686E-01  0.42419E-01
  0.64903E-01  0.33936E-01 -0.20501E-02 -0.27150E-01 -0.34040E-01 -0.26801E-01
 -0.14918E-01 -0.54234E-02  0.26993E-04  0.28782E-02  0.44903E-02  0.51704E-02
  0.49182E-02  0.40044E-02  0.27880E-02  0.14368E-02  0.20506E-08 -0.14368E-02
 -0.27880E-02 -0.40044E-02 -0.49182E-02 -0.51704E-02 -0.44903E-02 -0.28782E-02
 -0.26990E-04  0.54234E-02  0.14918E-01  0.26801E-01  0.34040E-01  0.27150E-01
 -0.92131E-09 -0.11338E-08 -0.21820E-08 -0.31759E-08 -0.29279E-08 -0.13050E-08
  0.68660E-09  0.20260E-08  0.25201E-08  0.25725E-08  0.25526E-08  0.25953E-08
  0.27492E-08  0.30066E-08  0.32094E-08  0.31217E-08  0.26638E-08  0.20273E-08
  0.15211E-08  0.12903E-08  0.11831E-08  0.93669E-09  0.49526E-09 -0.59546E-11
 -0.66472E-09 -0.19407E-08 -0.39278E-08 -0.55690E-08 -0.52677E-08 -0.27516E-08
 -0.64903E-01 -0.33936E-01  0.20501E-02  0.27150E-01  0.34040E-01  0.26801E-01
  0.14918E-01  0.54234E-02 -0.26988E-04 -0.28782E-02 -0.44903E-02 -0.51704E-02
 -0.49182E-02 -0.40044E-02 -0.27880E-02 -0.14368E-02  0.28940E-08  0.14368E-02
  0.27880E-02  0.40044E-02  0.49182E-02  0.51704E-02  0.44903E-02  0.28782E-02
  0.26989E-04 -0.54234E-02 -0.14918E-01 -0.26801E-01 -0.34040E-01 -0.27150E-01
 -0.10043E+00 -0.52322E-01  0.36280E-02  0.42419E-01  0.52686E-01  0.41061E-01
  0.22450E-01  0.76477E-02 -0.99759E-03 -0.57448E-02 -0.85266E-02 -0.96733E-02
 -0.91878E-02 -0.75540E-02 -0.53414E-02 -0.27880E-02  0.25256E-08  0.27880E-02
  0.53414E-02  0.75540E-02  0.91878E-02  0.96733E-02  0.85266E-02  0.57448E-02
  0.99759E-03 -0.76477E-02 -0.22450E-01 -0.41061E-01 -0.52686E-01 -0.42419E-01
 -0.96852E-01 -0.49781E-01  0.48802E-02  0.42276E-01  0.51453E-01  0.39429E-01
  0.20987E-01  0.63187E-02 -0.26914E-02 -0.81915E-02 -0.11649E-01 -0.13080E-01
 -0.12487E-01 -0.10453E-01 -0.75540E-02 -0.40044E-02  0.18909E-08  0.40044E-02
  0.75540E-02  0.10453E-01  0.12487E-01  0.13080E-01  0.11649E-01  0.81915E-02
  0.26914E-02 -0.63187E-02 -0.20987E-01 -0.39429E-01 -0.51453E-01 -0.42276E-01
 -0.67126E-01 -0.32872E-01  0.63992E-02  0.32461E-01  0.37851E-01  0.28336E-01
  0.14653E-01  0.35278E-02 -0.41723E-02 -0.97361E-02 -0.13539E-01 -0.15166E-01
 -0.14630E-01 -0.12487E-01 -0.91878E-02 -0.49182E-02  0.14268E-08  0.49182E-02
  0.91878E-02  0.12487E-01  0.14630E-01  0.15166E-01  0.13539E-01  0.97361E-02
  0.41723E-02 -0.35278E-02 -0.14653E-01 -0.28336E-01 -0.37851E-01 -0.32461E-01
 -0.32937E-01 -0.13102E-01  0.85535E-02  0.21788E-01  0.23212E-01  0.16831E-01
  0.85133E-02  0.12156E-02 -0.49685E-02 -0.10247E-01 -0.14006E-01 -0.15621E-01
 -0.15166E-01 -0.13080E-01 -0.96733E-02 -0.51704E-02  0.12538E-08  0.51704E-02
  0.96733E-02  0.13080E-01  0.15166E-01  0.15621E-01  0.14006E-01  0.10247E-01
  0.49685E-02 -0.12156E-02 -0.85133E-02 -0.16831E-01 -0.23212E-01 -0.21788E-01
 -0.85560E-02  0.15754E-02  0.11183E-01  0.15616E-01  0.14289E-01  0.98497E-02
  0.48081E-02 -0.17342E-03 -0.51913E-02 -0.97094E-02 -0.12789E-01 -0.14006E-01
 -0.13539E-01 -0.11649E-01 -0.85266E-02 -0.44903E-02  0.12231E-08  0.44903E-02
  0.85266E-02  0.11649E-01  0.13539E-01  0.14006E-01  0.12789E-01  0.97094E-02
  0.51913E-02  0.17342E-03 -0.48081E-02 -0.98497E-02 -0.14289E-01 -0.15616E-01
  0.43127E-02  0.98086E-02  0.13875E-01  0.14272E-01  0.11492E-01  0.74466E-02
  0.33251E-02 -0.78159E-03 -0.47459E-02 -0.78987E-02 -0.97094E-02 -0.10247E-01
 -0.97361E-02 -0.81915E-02 -0.57448E-02 -0.28782E-02  0.12081E-08  0.28782E-02
  0.57448E-02  0.81915E-02  0.97361E-02  0.10247E-01  0.97094E-02  0.78987E-02
  0.47459E-02  0.78159E-03 -0.33251E-02 -0.74466E-02 -0.11492E-01 -0.14272E-01
  0.10715E-01  0.14073E-01  0.16300E-01  0.15623E-01  0.12372E-01  0.80022E-02
  0.36189E-02 -0.25737E-03 -0.31634E-02 -0.47459E-02 -0.51913E-02 -0.49685E-02
 -0.41723E-02 -0.26914E-02 -0.99759E-03 -0.26989E-04  0.12558E-08  0.26991E-04
  0.99759E-03  0.26914E-02  0.41723E-02  0.49685E-02  0.51913E-02  0.47459E-02
  0.31634E-02  0.25737E-03 -0.36189E-02 -0.80022E-02 -0.12372E-01 -0.15623E-01
  0.15044E-01  0.16764E-01  0.18256E-01  0.17759E-01  0.14889E-01  0.10489E-01
  0.57957E-02  0.19532E-02 -0.25737E-03 -0.78159E-03 -0.17342E-03  0.12156E-02
  0.35278E-02  0.63187E-02  0.76477E-02  0.54234E-02  0.14775E-08 -0.54234E-02
 -0.76476E-02 -0.63187E-02 -0.35278E-02 -0.12156E-02  0.17342E-03  0.78159E-03
  0.25737E-03 -0.19532E-02 -0.57957E-02 -0.10489E-01 -0.14889E-01 -0.17759E-01
  0.18759E-01  0.18866E-01  0.19655E-01  0.19691E-01  0.17880E-01  0.14201E-01
  0.96781E-02  0.57957E-02  0.36189E-02  0.33251E-02  0.48081E-02  0.85133E-02
  0.14653E-01  0.20987E-01  0.22450E-01  0.14918E-01  0.17695E-08 -0.14918E-01
 -0.22450E-01 -0.20987E-01 -0.14653E-01 -0.85133E-02 -0.48081E-02 -0.33251E-02
 -0.36189E-02 -0.57957E-02 -0.96781E-02 -0.14201E-01 -0.17880E-01 -0.19691E-01
  0.22005E-01  0.20782E-01  0.20663E-01  0.20971E-01  0.20339E-01  0.17933E-01
  0.14201E-01  0.10489E-01  0.80022E-02  0.74466E-02  0.98497E-02  0.16831E-01
  0.28336E-01  0.39429E-01  0.41061E-01  0.26801E-01  0.16690E-08 -0.26801E-01
 -0.41061E-01 -0.39429E-01 -0.28336E-01 -0.16831E-01 -0.98497E-02 -0.74466E-02
 -0.80022E-02 -0.10489E-01 -0.14201E-01 -0.17933E-01 -0.20339E-01 -0.20971E-01
  0.24937E-01  0.22987E-01  0.21777E-01  0.21607E-01  0.21510E-01  0.20339E-01
  0.17880E-01  0.14889E-01  0.12372E-01  0.11492E-01  0.14289E-01  0.23212E-01
  0.37851E-01  0.51453E-01  0.52686E-01  0.34040E-01  0.74652E-09 -0.34040E-01
 -0.52686E-01 -0.51453E-01 -0.37851E-01 -0.23212E-01 -0.14289E-01 -0.11492E-01
 -0.12372E-01 -0.14889E-01 -0.17880E-01 -0.20339E-01 -0.21510E-01 -0.21607E-01
  0.27412E-01  0.25625E-01  0.23528E-01  0.22201E-01  0.21607E-01  0.20971E-01
  0.19691E-01  0.17759E-01  0.15623E-01  0.14272E-01  0.15616E-01  0.21788E-01
  0.32461E-01  0.42276E-01  0.42419E-01  0.27150E-01 -0.63118E-09 -0.27150E-01
 -0.42419E-01 -0.42276E-01 -0.32461E-01 -0.21788E-01 -0.15616E-01 -0.14272E-01
 -0.15623E-01 -0.17759E-01 -0.19691E-01 -0.20971E-01 -0.21607E-01 -0.22201E-01
 -0.27176E-01 -0.27990E-01 -0.26758E-01 -0.24190E-01 -0.21459E-01 -0.19231E-01
 -0.17444E-01 -0.15812E-01 -0.14177E-01 -0.12192E-01 -0.89236E-02 -0.34280E-02
  0.38167E-02  0.10207E-01  0.12292E-01  0.83325E-02  0.46179E-08 -0.83325E-02
 -0.12292E-01 -0.10207E-01 -0.38167E-02  0.34280E-02  0.89236E-02  0.12192E-01
  0.14177E-01  0.15812E-01  0.17444E-01  0.19231E-01  0.21459E-01  0.24190E-01
 -0.27990E-01 -0.26909E-01 -0.24302E-01 -0.21616E-01 -0.19775E-01 -0.18720E-01
 -0.17934E-01 -0.17060E-01 -0.16158E-01 -0.15993E-01 -0.18423E-01 -0.25606E-01
 -0.37153E-01 -0.47386E-01 -0.46980E-01 -0.29895E-01  0.15820E-08  0.29895E-01
  0.46980E-01  0.47386E-01  0.37153E-01  0.25606E-01  0.18423E-01  0.15993E-01
  0.16158E-01  0.17060E-01  0.17934E-01  0.18720E-01  0.19775E-01  0.21616E-01
 -0.26758E-01 -0.24302E-01 -0.21667E-01 -0.20051E-01 -0.19316E-01 -0.18581E-01
 -0.17368E-01 -0.15919E-01 -0.14933E-01 -0.16264E-01 -0.24072E-01 -0.42986E-01
 -0.71632E-01 -0.96947E-01 -0.98388E-01 -0.63147E-01 -0.63435E-09  0.63147E-01
  0.98389E-01  0.96947E-01  0.71632E-01  0.42986E-01  0.24072E-01  0.16264E-01
  0.14933E-01  0.15919E-01  0.17368E-01  0.18581E-01  0.19316E-01  0.20051E-01
 -0.24190E-01 -0.21616E-01 -0.20051E-01 -0.19627E-01 -0.19095E-01 -0.17292E-01
 -0.14428E-01 -0.11733E-01 -0.10470E-01 -0.12681E-01 -0.23027E-01 -0.47010E-01
 -0.83075E-01 -0.11532E+00 -0.11843E+00 -0.76423E-01 -0.10714E-08  0.76423E-01
  0.11843E+00  0.11532E+00  0.83075E-01  0.47010E-01  0.23027E-01  0.12681E-01
  0.10470E-01  0.11733E-01  0.14428E-01  0.17292E-01  0.19095E-01  0.19627E-01
 -0.21459E-01 -0.19775E-01 -0.19316E-01 -0.19095E-01 -0.17494E-01 -0.13864E-01
 -0.93346E-02 -0.58448E-02 -0.46980E-02 -0.71107E-02 -0.16440E-01 -0.37432E-01
 -0.69352E-01 -0.98717E-01 -0.10287E+00 -0.66910E-01 -0.36337E-09  0.66910E-01
  0.10287E+00  0.98717E-01  0.69352E-01  0.37432E-01  0.16440E-01  0.71107E-02
  0.46980E-02  0.58448E-02  0.93346E-02  0.13864E-01  0.17494E-01  0.19095E-01
 -0.19231E-01 -0.18720E-01 -0.18581E-01 -0.17292E-01 -0.13864E-01 -0.86677E-02
 -0.33891E-02  0.46685E-04  0.77635E-03 -0.12889E-02 -0.75107E-02 -0.20956E-01
 -0.42006E-01 -0.62457E-01 -0.66840E-01 -0.44120E-01  0.45985E-09  0.44120E-01
  0.66840E-01  0.62457E-01  0.42006E-01  0.20956E-01  0.75107E-02  0.12889E-02
 -0.77635E-03 -0.46684E-04  0.33891E-02  0.86677E-02  0.13864E-01  0.17292E-01
 -0.17444E-01 -0.17934E-01 -0.17368E-01 -0.14428E-01 -0.93346E-02 -0.33891E-02
  0.18232E-02  0.50340E-02  0.58431E-02  0.46968E-02  0.16478E-02 -0.46547E-02
 -0.15140E-01 -0.26490E-01 -0.30664E-01 -0.21039E-01  0.10172E-08  0.21039E-01
  0.30664E-01  0.26490E-01  0.15140E-01  0.46547E-02 -0.16478E-02 -0.46968E-02
 -0.58431E-02 -0.50340E-02 -0.18232E-02  0.33891E-02  0.93346E-02  0.14428E-01
 -0.15812E-01 -0.17060E-01 -0.15919E-01 -0.11733E-01 -0.58447E-02  0.46685E-04
  0.50340E-02  0.87322E-02  0.10848E-01  0.11405E-01  0.10694E-01  0.85011E-02
  0.41566E-02 -0.16906E-02 -0.59314E-02 -0.52481E-02  0.14442E-08  0.52481E-02
  0.59314E-02  0.16906E-02 -0.41566E-02 -0.85011E-02 -0.10694E-01 -0.11405E-01
 -0.10848E-01 -0.87322E-02 -0.50340E-02 -0.46683E-04  0.58448E-02  0.11733E-01
 -0.14177E-01 -0.16158E-01 -0.14933E-01 -0.10470E-01 -0.46980E-02  0.77635E-03
  0.58431E-02  0.10848E-01  0.15310E-01  0.18267E-01  0.19334E-01  0.18677E-01
  0.16273E-01  0.12131E-01  0.71986E-02  0.30045E-02  0.18390E-08 -0.30045E-02
 -0.71986E-02 -0.12131E-01 -0.16273E-01 -0.18677E-01 -0.19334E-01 -0.18267E-01
 -0.15310E-01 -0.10848E-01 -0.58431E-02 -0.77635E-03  0.46980E-02  0.10470E-01
 -0.12192E-01 -0.15993E-01 -0.16264E-01 -0.12681E-01 -0.71107E-02 -0.12889E-02
  0.46968E-02  0.11405E-01  0.18267E-01  0.23615E-01  0.26238E-01  0.26134E-01
  0.23778E-01  0.19447E-01  0.13539E-01  0.68391E-02  0.21793E-08 -0.68391E-02
 -0.13539E-01 -0.19447E-01 -0.23778E-01 -0.26134E-01 -0.26238E-01 -0.23615E-01
 -0.18267E-01 -0.11405E-01 -0.46968E-02  0.12889E-02  0.71107E-02  0.12681E-01
 -0.89236E-02 -0.18423E-01 -0.24072E-01 -0.23027E-01 -0.16440E-01 -0.75107E-02
  0.16478E-02  0.10694E-01  0.19334E-01  0.26238E-01  0.29990E-01  0.30300E-01
  0.27792E-01  0.23081E-01  0.16535E-01  0.86201E-02  0.24805E-08 -0.86201E-02
 -0.16535E-01 -0.23081E-01 -0.27792E-01 -0.30300E-01 -0.29990E-01 -0.26238E-01
 -0.19334E-01 -0.10694E-01 -0.16478E-02  0.75107E-02  0.16440E-01  0.23027E-01
 -0.34280E-02 -0.25606E-01 -0.42986E-01 -0.47010E-01 -0.37432E-01 -0.20956E-01
 -0.46547E-02  0.85011E-02  0.18677E-01  0.26134E-01  0.30300E-01  0.30860E-01
  0.28375E-01  0.23649E-01  0.17113E-01  0.90352E-02  0.27111E-08 -0.90352E-02
 -0.17113E-01 -0.23649E-01 -0.28375E-01 -0.30860E-01 -0.30300E-01 -0.26134E-01
 -0.18677E-01 -0.85011E-02  0.46547E-02  0.20956E-01  0.37432E-01  0.47010E-01
  0.38167E-02 -0.37153E-01 -0.71632E-01 -0.83075E-01 -0.69352E-01 -0.42006E-01
 -0.15140E-01  0.41566E-02  0.16273E-01  0.23778E-01  0.27792E-01  0.28375E-01
  0.25993E-01  0.21537E-01  0.15562E-01  0.82413E-02  0.27145E-08 -0.82413E-02
 -0.15562E-01 -0.21537E-01 -0.25993E-01 -0.28375E-01 -0.27792E-01 -0.23778E-01
 -0.16273E-01 -0.41566E-02  0.15140E-01  0.42006E-01  0.69352E-01  0.83075E-01
  0.10207E-01 -0.47386E-01 -0.96947E-01 -0.11532E+00 -0.98717E-01 -0.62457E-01
 -0.26490E-01 -0.16906E-02  0.12131E-01  0.19447E-01  0.23081E-01  0.23649E-01
  0.21537E-01  0.17623E-01  0.12592E-01  0.66329E-02  0.24750E-08 -0.66329E-02
 -0.12592E-01 -0.17623E-01 -0.21537E-01 -0.23649E-01 -0.23081E-01 -0.19447E-01
 -0.12131E-01  0.16906E-02  0.26490E-01  0.62457E-01  0.98717E-01  0.11532E+00
  0.12292E-01 -0.46980E-01 -0.98388E-01 -0.11843E+00 -0.10287E+00 -0.66840E-01
 -0.30664E-01 -0.59314E-02  0.71986E-02  0.13539E-01  0.16535E-01  0.17113E-01
  0.15562E-01  0.12592E-01  0.88741E-02  0.46305E-02  0.23192E-08 -0.46305E-02
 -0.88741E-02 -0.12592E-01 -0.15562E-01 -0.17113E-01 -0.16535E-01 -0.13539E-01
 -0.71986E-02  0.59314E-02  0.30664E-01  0.66840E-01  0.10287E+00  0.11843E+00
  0.83325E-02 -0.29895E-01 -0.63147E-01 -0.76423E-01 -0.66910E-01 -0.44120E-01
 -0.21039E-01 -0.52481E-02  0.30045E-02  0.68391E-02  0.86201E-02  0.90352E-02
  0.82413E-02  0.66329E-02  0.46305E-02  0.23978E-02  0.25753E-08 -0.23978E-02
 -0.46305E-02 -0.66329E-02 -0.82413E-02 -0.90352E-02 -0.86201E-02 -0.68391E-02
 -0.30045E-02  0.52481E-02  0.21039E-01  0.44120E-01  0.66910E-01  0.76423E-01
 -0.81413E-09 -0.18691E-08 -0.36976E-08 -0.49952E-08 -0.44619E-08 -0.22318E-08
  0.30144E-09  0.19325E-08  0.25613E-08  0.27696E-08  0.29813E-08  0.32426E-08
  0.35005E-08  0.37342E-08  0.38453E-08  0.36535E-08  0.30941E-08  0.23565E-08
  0.17647E-08  0.14902E-08  0.13831E-08  0.11389E-08  0.63771E-09 -0.30255E-10
 -0.96286E-09 -0.25616E-08 -0.47990E-08 -0.64690E-08 -0.59066E-08 -0.29586E-08
 -0.83325E-02  0.29895E-01  0.63147E-01  0.76423E-01  0.66910E-01  0.44120E-01
  0.21039E-01  0.52481E-02 -0.30045E-02 -0.68391E-02 -0.86201E-02 -0.90352E-02
 -0.82413E-02 -0.66329E-02 -0.46305E-02 -0.23978E-02  0.33671E-08  0.23978E-02
  0.46305E-02  0.66329E-02  0.82413E-02  0.90352E-02  0.86201E-02  0.68391E-02
  0.30045E-02 -0.52481E-02 -0.21039E-01 -0.44120E-01 -0.66910E-01 -0.76423E-01
 -0.12292E-01  0.46980E-01  0.98388E-01  0.11843E+00  0.10287E+00  0.66840E-01
  0.30664E-01  0.59314E-02 -0.71986E-02 -0.13539E-01 -0.16535E-01 -0.17113E-01
 -0.15562E-01 -0.12592E-01 -0.88741E-02 -0.46305E-02  0.31153E-08  0.46305E-02
  0.88741E-02  0.12592E-01  0.15562E-01  0.17113E-01  0.16535E-01  0.13539E-01
  0.71986E-02 -0.59314E-02 -0.30664E-01 -0.66840E-01 -0.10287E+00 -0.11843E+00
 -0.10207E-01  0.47386E-01  0.96947E-01  0.11532E+00  0.98717E-01  0.62457E-01
  0.26490E-01  0.16906E-02 -0.12131E-01 -0.19447E-01 -0.23081E-01 -0.23649E-01
 -0.21537E-01 -0.17623E-01 -0.12592E-01 -0.66329E-02  0.25561E-08  0.66329E-02
  0.12592E-01  0.17623E-01  0.21537E-01  0.23649E-01  0.23081E-01  0.19447E-01
  0.12131E-01 -0.16906E-02 -0.26490E-01 -0.62457E-01 -0.98717E-01 -0.11532E+00
 -0.38167E-02  0.37153E-01  0.71632E-01  0.83075E-01  0.69352E-01  0.42006E-01
  0.15140E-01 -0.41566E-02 -0.16273E-01 -0.23778E-01 -0.27792E-01 -0.28375E-01
 -0.25993E-01 -0.21537E-01 -0.15562E-01 -0.82413E-02  0.20769E-08  0.82413E-02
  0.15562E-01  0.21537E-01  0.25993E-01  0.28375E-01  0.27792E-01  0.23778E-01
  0.16273E-01  0.41566E-02 -0.15140E-01 -0.42006E-01 -0.69352E-01 -0.83075E-01
  0.34280E-02  0.25606E-01  0.42986E-01  0.47010E-01  0.37432E-01  0.20956E-01
  0.46547E-02 -0.85011E-02 -0.18677E-01 -0.26134E-01 -0.30300E-01 -0.30860E-01
 -0.28375E-01 -0.23649E-01 -0.17113E-01 -0.90352E-02  0.18376E-08  0.90352E-02
  0.17113E-01  0.23649E-01  0.28375E-01  0.30860E-01  0.30300E-01  0.26134E-01
  0.18677E-01  0.85011E-02 -0.46547E-02 -0.20956E-01 -0.37432E-01 -0.47010E-01
  0.89236E-02  0.18423E-01  0.24072E-01  0.23027E-01  0.16440E-01  0.75107E-02
 -0.16478E-02 -0.10694E-01 -0.19334E-01 -0.26238E-01 -0.29990E-01 -0.30300E-01
 -0.27792E-01 -0.23081E-01 -0.16535E-01 -0.86201E-02  0.17471E-08  0.86201E-02
  0.16535E-01  0.23081E-01  0.27792E-01  0.30300E-01  0.29990E-01  0.26238E-01
  0.19334E-01  0.10694E-01  0.16478E-02 -0.75107E-02 -0.16440E-01 -0.23027E-01
  0.12192E-01  0.15993E-01  0.16264E-01  0.12681E-01  0.71107E-02  0.12889E-02
 -0.46968E-02 -0.11405E-01 -0.18267E-01 -0.23615E-01 -0.26238E-01 -0.26134E-01
 -0.23778E-01 -0.19447E-01 -0.13539E-01 -0.68391E-02  0.16922E-08  0.68391E-02
  0.13539E-01  0.19447E-01  0.23778E-01  0.26134E-01  0.26238E-01  0.23615E-01
  0.18267E-01  0.11405E-01  0.46968E-02 -0.12889E-02 -0.71107E-02 -0.12681E-01
  0.14177E-01  0.16158E-01  0.14933E-01  0.10470E-01  0.46980E-02 -0.77635E-03
 -0.58431E-02 -0.10848E-01 -0.15310E-01 -0.18267E-01 -0.19334E-01 -0.18677E-01
 -0.16273E-01 -0.12131E-01 -0.71986E-02 -0.30045E-02  0.17046E-08  0.30045E-02
  0.71986E-02  0.12131E-01  0.16273E-01  0.18677E-01  0.19334E-01  0.18267E-01
  0.15310E-01  0.10848E-01  0.58431E-02  0.77635E-03 -0.46980E-02 -0.10470E-01
  0.15812E-01  0.17060E-01  0.15919E-01  0.11733E-01  0.58448E-02 -0.46683E-04
 -0.50340E-02 -0.87322E-02 -0.10848E-01 -0.11405E-01 -0.10694E-01 -0.85011E-02
 -0.41566E-02  0.16906E-02  0.59314E-02  0.52481E-02  0.19037E-08 -0.52481E-02
 -0.59314E-02 -0.16906E-02  0.41566E-02  0.85011E-02  0.10694E-01  0.11405E-01
  0.10848E-01  0.87322E-02  0.50340E-02  0.46684E-04 -0.58448E-02 -0.11733E-01
  0.17444E-01  0.17934E-01  0.17368E-01  0.14428E-01  0.93346E-02  0.33891E-02
 -0.18232E-02 -0.50340E-02 -0.58431E-02 -0.46968E-02 -0.16478E-02  0.46547E-02
  0.15140E-01  0.26490E-01  0.30664E-01  0.21039E-01  0.22287E-08 -0.21039E-01
 -0.30664E-01 -0.26490E-01 -0.15140E-01 -0.46547E-02  0.16478E-02  0.46968E-02
  0.58431E-02  0.50340E-02  0.18232E-02 -0.33891E-02 -0.93346E-02 -0.14428E-01
  0.19231E-01  0.18720E-01  0.18581E-01  0.17292E-01  0.13864E-01  0.86677E-02
  0.33891E-02 -0.46683E-04 -0.77635E-03  0.12889E-02  0.75107E-02  0.20956E-01
  0.42006E-01  0.62457E-01  0.66840E-01  0.44120E-01  0.22449E-08 -0.44120E-01
 -0.66840E-01 -0.62457E-01 -0.42006E-01 -0.20956E-01 -0.75107E-02 -0.12889E-02
  0.77635E-03  0.46683E-04 -0.33891E-02 -0.86677E-02 -0.13864E-01 -0.17292E-01
  0.21459E-01  0.19775E-01  0.19316E-01  0.19095E-01  0.17494E-01  0.13864E-01
  0.93346E-02  0.58448E-02  0.46980E-02  0.71107E-02  0.16440E-01  0.37432E-01
  0.69352E-01  0.98717E-01  0.10287E+00  0.66910E-01  0.14894E-08 -0.66910E-01
 -0.10287E+00 -0.98717E-01 -0.69352E-01 -0.37432E-01 -0.16440E-01 -0.71107E-02
 -0.46980E-02 -0.58448E-02 -0.93346E-02 -0.13864E-01 -0.17494E-01 -0.19095E-01
  0.24190E-01  0.21616E-01  0.20051E-01  0.19627E-01  0.19095E-01  0.17292E-01
  0.14428E-01  0.11733E-01  0.10470E-01  0.12681E-01  0.23027E-01  0.47010E-01
  0.83075E-01  0.11532E+00  0.11843E+00  0.76423E-01  0.24721E-09 -0.76423E-01
 -0.11843E+00 -0.11532E+00 -0.83075E-01 -0.47010E-01 -0.23027E-01 -0.12681E-01
 -0.10470E-01 -0.11733E-01 -0.14428E-01 -0.17292E-01 -0.19095E-01 -0.19627E-01
 -0.26404E-01 -0.25110E-01 -0.22255E-01 -0.19397E-01 -0.17517E-01 -0.16552E-01
 -0.16019E-01 -0.15654E-01 -0.15645E-01 -0.17182E-01 -0.23201E-01 -0.37093E-01
 -0.57966E-01 -0.76230E-01 -0.76461E-01 -0.48858E-01  0.26237E-08  0.48858E-01
  0.76461E-01  0.76230E-01  0.57966E-01  0.37093E-01  0.23201E-01  0.17182E-01
  0.15645E-01  0.15654E-01  0.16019E-01  0.16552E-01  0.17517E-01  0.19397E-01
 -0.25110E-01 -0.22109E-01 -0.18985E-01 -0.17123E-01 -0.16410E-01 -0.15867E-01
 -0.14996E-01 -0.14117E-01 -0.14092E-01 -0.17392E-01 -0.29740E-01 -0.57526E-01
 -0.98719E-01 -0.13495E+00 -0.13743E+00 -0.88312E-01 -0.61336E-09  0.88312E-01
  0.13743E+00  0.13495E+00  0.98719E-01  0.57526E-01  0.29740E-01  0.17392E-01
  0.14092E-01  0.14117E-01  0.14996E-01  0.15867E-01  0.16410E-01  0.17123E-01
 -0.22255E-01 -0.18985E-01 -0.16911E-01 -0.16199E-01 -0.15497E-01 -0.13605E-01
 -0.10904E-01 -0.88284E-02 -0.88272E-02 -0.13822E-01 -0.30865E-01 -0.68100E-01
 -0.12289E+00 -0.17132E+00 -0.17592E+00 -0.11344E+00 -0.27713E-08  0.11344E+00
  0.17592E+00  0.17132E+00  0.12289E+00  0.68100E-01  0.30865E-01  0.13822E-01
  0.88272E-02  0.88284E-02  0.10904E-01  0.13605E-01  0.15497E-01  0.16199E-01
 -0.19397E-01 -0.17123E-01 -0.16199E-01 -0.15462E-01 -0.13166E-01 -0.88370E-02
 -0.40913E-02 -0.12305E-02 -0.16505E-02 -0.74574E-02 -0.24913E-01 -0.62145E-01
 -0.11721E+00 -0.16675E+00 -0.17306E+00 -0.11220E+00 -0.27871E-08  0.11220E+00
  0.17306E+00  0.16675E+00  0.11721E+00  0.62145E-01  0.24913E-01  0.74574E-02
  0.16505E-02  0.12305E-02  0.40913E-02  0.88370E-02  0.13166E-01  0.15462E-01
 -0.17517E-01 -0.16410E-01 -0.15497E-01 -0.13166E-01 -0.84860E-02 -0.21771E-02
  0.34805E-02  0.62393E-02  0.53794E-02  0.26187E-03 -0.13198E-01 -0.41654E-01
 -0.84818E-01 -0.12521E+00 -0.13264E+00 -0.86915E-01 -0.14016E-08  0.86915E-01
  0.13264E+00  0.12521E+00  0.84818E-01  0.41654E-01  0.13198E-01 -0.26186E-03
 -0.53794E-02 -0.62393E-02 -0.34805E-02  0.21771E-02  0.84860E-02  0.13166E-01
 -0.16552E-01 -0.15867E-01 -0.13605E-01 -0.88370E-02 -0.21771E-02  0.47707E-02
  0.10117E-01  0.12543E-01  0.12029E-01  0.89358E-02  0.13589E-02 -0.15174E-01
 -0.41835E-01 -0.68792E-01 -0.76723E-01 -0.51546E-01  0.10431E-09  0.51546E-01
  0.76723E-01  0.68792E-01  0.41835E-01  0.15174E-01 -0.13589E-02 -0.89358E-02
 -0.12029E-01 -0.12543E-01 -0.10117E-01 -0.47707E-02  0.21771E-02  0.88370E-02
 -0.16019E-01 -0.14996E-01 -0.10904E-01 -0.40913E-02  0.34805E-02  0.10117E-01
  0.15094E-01  0.18191E-01  0.19456E-01  0.19090E-01  0.16395E-01  0.90479E-02
 -0.44564E-02 -0.20203E-01 -0.28401E-01 -0.20833E-01  0.11437E-08  0.20833E-01
  0.28401E-01  0.20203E-01  0.44564E-02 -0.90479E-02 -0.16395E-01 -0.19090E-01
 -0.19456E-01 -0.18191E-01 -0.15094E-01 -0.10117E-01 -0.34805E-02  0.40913E-02
 -0.15654E-01 -0.14117E-01 -0.88284E-02 -0.12305E-02  0.62393E-02  0.12543E-01
  0.18191E-01  0.23554E-01  0.27961E-01  0.30479E-01  0.30555E-01  0.27498E-01
  0.20541E-01  0.10719E-01  0.19798E-02 -0.15365E-02  0.18021E-08  0.15365E-02
 -0.19798E-02 -0.10719E-01 -0.20541E-01 -0.27498E-01 -0.30555E-01 -0.30479E-01
 -0.27961E-01 -0.23554E-01 -0.18191E-01 -0.12543E-01 -0.62393E-02  0.12305E-02
 -0.15645E-01 -0.14092E-01 -0.88272E-02 -0.16505E-02  0.53794E-02  0.12029E-01
  0.19456E-01  0.27961E-01  0.35888E-01  0.41032E-01  0.42437E-01  0.40328E-01
  0.34978E-01  0.26760E-01  0.17077E-01  0.79273E-02  0.22395E-08 -0.79273E-02
 -0.17077E-01 -0.26760E-01 -0.34978E-01 -0.40328E-01 -0.42437E-01 -0.41032E-01
 -0.35888E-01 -0.27961E-01 -0.19456E-01 -0.12029E-01 -0.53794E-02  0.16505E-02
 -0.17182E-01 -0.17392E-01 -0.13822E-01 -0.74574E-02  0.26187E-03  0.89358E-02
  0.19090E-01  0.30479E-01  0.41032E-01  0.48063E-01  0.50304E-01  0.48249E-01
  0.42813E-01  0.34498E-01  0.23900E-01  0.12095E-01  0.25255E-08 -0.12095E-01
 -0.23900E-01 -0.34498E-01 -0.42813E-01 -0.48249E-01 -0.50304E-01 -0.48063E-01
 -0.41032E-01 -0.30479E-01 -0.19090E-01 -0.89358E-02 -0.26186E-03  0.74574E-02
 -0.23201E-01 -0.29740E-01 -0.30865E-01 -0.24913E-01 -0.13198E-01  0.13589E-02
  0.16395E-01  0.30555E-01  0.42437E-01  0.50304E-01  0.53162E-01  0.51418E-01
  0.46077E-01  0.37768E-01  0.26837E-01  0.13925E-01  0.27755E-08 -0.13925E-01
 -0.26837E-01 -0.37768E-01 -0.46077E-01 -0.51418E-01 -0.53162E-01 -0.50304E-01
 -0.42437E-01 -0.30555E-01 -0.16395E-01 -0.13589E-02  0.13198E-01  0.24913E-01
 -0.37093E-01 -0.57526E-01 -0.68100E-01 -0.62145E-01 -0.41654E-01 -0.15174E-01
  0.90479E-02  0.27498E-01  0.40328E-01  0.48249E-01  0.51418E-01  0.50168E-01
  0.45302E-01  0.37492E-01  0.27010E-01  0.14207E-01  0.30503E-08 -0.14207E-01
 -0.27010E-01 -0.37492E-01 -0.45302E-01 -0.50168E-01 -0.51418E-01 -0.48249E-01
 -0.40328E-01 -0.27498E-01 -0.90479E-02  0.15174E-01  0.41654E-01  0.62145E-01
 -0.57966E-01 -0.98719E-01 -0.12289E+00 -0.11721E+00 -0.84818E-01 -0.41835E-01
 -0.44564E-02  0.20541E-01  0.34978E-01  0.42813E-01  0.46077E-01  0.45302E-01
  0.41057E-01  0.34067E-01  0.24677E-01  0.13070E-01  0.32057E-08 -0.13070E-01
 -0.24677E-01 -0.34067E-01 -0.41057E-01 -0.45302E-01 -0.46077E-01 -0.42813E-01
 -0.34978E-01 -0.20541E-01  0.44564E-02  0.41835E-01  0.84818E-01  0.11721E+00
 -0.76230E-01 -0.13495E+00 -0.17132E+00 -0.16675E+00 -0.12521E+00 -0.68792E-01
 -0.20203E-01  0.10719E-01  0.26760E-01  0.34498E-01  0.37768E-01  0.37492E-01
  0.34067E-01  0.28222E-01  0.20431E-01  0.10840E-01  0.31124E-08 -0.10840E-01
 -0.20431E-01 -0.28222E-01 -0.34067E-01 -0.37492E-01 -0.37768E-01 -0.34498E-01