       #
       # Generated by the Wannier90 code http://www.wannier.org
       # On 29Dec2023 at 23:55:10 
       #
CRYSTAL
PRIMVEC
   4.1863376   0.0000000   0.0000000
   0.0000000   4.1863376   0.0000000
   0.0000000   0.0000000   4.1863376
CONVVEC
   4.1863376   0.0000000   0.0000000
   0.0000000   4.1863376   0.0000000
   0.0000000   0.0000000   4.1863376
PRIMCOORD
     8  1
O       0.0000000   0.0000000   0.0000000
O       0.0000000   2.0931688   2.0931688
O       2.0931688   0.0000000   2.0931688
O       2.0931688   2.0931688   0.0000000
Ni      0.0000000   0.0000000   2.0931688
Ni      2.0931688   0.0000000   0.0000000
Ni      0.0000000   2.0931688   0.0000000
Ni      2.0931688   2.0931688   2.0931688


BEGIN_BLOCK_DATAGRID_3D
3D_field
BEGIN_DATAGRID_3D_UNKNOWN
    45    45    45
   -0.093030   -0.093030   -0.093030
   4.0933079   0.0000000   0.0000000
   0.0000000   4.0933079   0.0000000
   0.0000000   0.0000000   4.0933079
  0.27020E-01  0.20040E-01  0.10024E-01  0.61122E-03 -0.56810E-02 -0.85902E-02
 -0.93753E-02 -0.93643E-02 -0.91878E-02 -0.89606E-02 -0.87088E-02 -0.84887E-02
 -0.82975E-02 -0.80706E-02 -0.77195E-02 -0.69839E-02 -0.52143E-02 -0.15762E-02
  0.41305E-02  0.10705E-01  0.15878E-01  0.17902E-01  0.17089E-01  0.15637E-01
  0.15637E-01  0.17089E-01  0.17902E-01  0.15878E-01  0.10705E-01  0.41305E-02
 -0.15761E-02 -0.52141E-02 -0.69837E-02 -0.77194E-02 -0.80705E-02 -0.82974E-02
 -0.84887E-02 -0.87089E-02 -0.89608E-02 -0.91881E-02 -0.93648E-02 -0.93760E-02
 -0.85911E-02 -0.56820E-02  0.61027E-03  0.17611E-01  0.95410E-02 -0.20778E-03
 -0.80932E-02 -0.12181E-01 -0.12900E-01 -0.11946E-01 -0.10725E-01 -0.97310E-02
 -0.89210E-02 -0.82251E-02 -0.76506E-02 -0.71588E-02 -0.66509E-02 -0.59996E-02
 -0.48838E-02 -0.25595E-02  0.19187E-02  0.88365E-02  0.17003E-01  0.24040E-01
  0.27957E-01  0.28716E-01  0.28162E-01  0.28162E-01  0.28716E-01  0.27957E-01
  0.24040E-01  0.17003E-01  0.88365E-02  0.19188E-02 -0.25594E-02 -0.48836E-02
 -0.59995E-02 -0.66507E-02 -0.71587E-02 -0.76506E-02 -0.82252E-02 -0.89212E-02
 -0.97313E-02 -0.10725E-01 -0.11947E-01 -0.12901E-01 -0.12182E-01 -0.80941E-02
  0.57434E-02 -0.23514E-02 -0.10561E-01 -0.15943E-01 -0.17405E-01 -0.15989E-01
 -0.13563E-01 -0.11396E-01 -0.97759E-02 -0.85159E-02 -0.74710E-02 -0.65983E-02
 -0.58237E-02 -0.50344E-02 -0.41091E-02 -0.27475E-02 -0.24094E-03  0.43339E-02
  0.11320E-01  0.19701E-01  0.27304E-01  0.32177E-01  0.34015E-01  0.34189E-01
  0.34189E-01  0.34015E-01  0.32177E-01  0.27304E-01  0.19701E-01  0.11320E-01
  0.43340E-02 -0.24076E-03 -0.27473E-02 -0.41089E-02 -0.50343E-02 -0.58236E-02
 -0.65983E-02 -0.74711E-02 -0.85161E-02 -0.97762E-02 -0.11397E-01 -0.13563E-01
 -0.15990E-01 -0.17406E-01 -0.15944E-01 -0.42842E-02 -0.11328E-01 -0.17333E-01
 -0.20207E-01 -0.19622E-01 -0.16911E-01 -0.13789E-01 -0.11224E-01 -0.92991E-02
 -0.77602E-02 -0.64467E-02 -0.53029E-02 -0.42555E-02 -0.32184E-02 -0.21147E-02
 -0.71708E-03  0.15592E-02  0.55064E-02  0.11472E-01  0.18699E-01  0.25442E-01
  0.30049E-01  0.32123E-01  0.32609E-01  0.32609E-01  0.32123E-01  0.30049E-01
  0.25442E-01  0.18699E-01  0.11472E-01  0.55066E-02  0.15594E-02 -0.71688E-03
 -0.21145E-02 -0.32182E-02 -0.42554E-02 -0.53029E-02 -0.64467E-02 -0.77603E-02
 -0.92994E-02 -0.11225E-01 -0.13790E-01 -0.16911E-01 -0.19623E-01 -0.20208E-01
 -0.99114E-02 -0.15262E-01 -0.19130E-01 -0.20229E-01 -0.18693E-01 -0.15772E-01
 -0.12773E-01 -0.10307E-01 -0.83336E-02 -0.66393E-02 -0.51251E-02 -0.37696E-02
 -0.25298E-02 -0.13578E-02 -0.21584E-03  0.10504E-02  0.28675E-02  0.58271E-02
  0.10215E-01  0.15523E-01  0.20512E-01  0.23972E-01  0.25582E-01  0.25996E-01
  0.25996E-01  0.25582E-01  0.23972E-01  0.20512E-01  0.15523E-01  0.10215E-01
  0.58273E-02  0.28678E-02  0.10506E-02 -0.21564E-03 -0.13577E-02 -0.25297E-02
 -0.37695E-02 -0.51251E-02 -0.66394E-02 -0.83338E-02 -0.10307E-01 -0.12773E-01
 -0.15772E-01 -0.18694E-01 -0.20229E-01 -0.11376E-01 -0.14977E-01 -0.17231E-01
 -0.17439E-01 -0.15879E-01 -0.13466E-01 -0.11021E-01 -0.88635E-02 -0.69459E-02
 -0.51816E-02 -0.35733E-02 -0.21381E-02 -0.84740E-03  0.33640E-03  0.14383E-02
  0.25510E-02  0.39337E-02  0.59498E-02  0.87810E-02  0.12120E-01  0.15196E-01
  0.17255E-01  0.18129E-01  0.18291E-01  0.18291E-01  0.18129E-01  0.17255E-01
  0.15196E-01  0.12120E-01  0.87813E-02  0.59501E-02  0.39340E-02  0.25513E-02
  0.14385E-02  0.33659E-03 -0.84725E-03 -0.21380E-02 -0.35732E-02 -0.51816E-02
 -0.69460E-02 -0.88637E-02 -0.11021E-01 -0.13466E-01 -0.15879E-01 -0.17439E-01
 -0.10537E-01 -0.12739E-01 -0.13962E-01 -0.13864E-01 -0.12669E-01 -0.10907E-01
 -0.90016E-02 -0.71141E-02 -0.52779E-02 -0.35465E-02 -0.19876E-02 -0.60975E-03
  0.63696E-03  0.17952E-02  0.28721E-02  0.38877E-02  0.49411E-02  0.61972E-02
  0.77531E-02  0.94682E-02  0.10954E-01  0.11832E-01  0.12063E-01  0.11993E-01
  0.11993E-01  0.12063E-01  0.11832E-01  0.10954E-01  0.94684E-02  0.77534E-02
  0.61975E-02  0.49413E-02  0.38879E-02  0.28723E-02  0.17954E-02  0.63714E-03
 -0.60961E-03 -0.19875E-02 -0.35465E-02 -0.52779E-02 -0.71142E-02 -0.90018E-02
 -0.10908E-01 -0.12670E-01 -0.13864E-01 -0.90573E-02 -0.10311E-01 -0.10925E-01
 -0.10739E-01 -0.98670E-02 -0.85456E-02 -0.69670E-02 -0.52610E-02 -0.35552E-02
 -0.19720E-02 -0.56212E-03  0.71471E-03  0.19222E-02  0.30724E-02  0.41194E-02
  0.50082E-02  0.57279E-02  0.63306E-02  0.68890E-02  0.74052E-02  0.77650E-02
  0.78384E-02  0.76565E-02  0.74493E-02  0.74493E-02  0.76566E-02  0.78386E-02
  0.77652E-02  0.74054E-02  0.68893E-02  0.63308E-02  0.57281E-02  0.50084E-02
  0.41196E-02  0.30726E-02  0.19224E-02  0.71487E-03 -0.56200E-03 -0.19719E-02
 -0.35552E-02 -0.52610E-02 -0.69670E-02 -0.85456E-02 -0.98671E-02 -0.10739E-01
 -0.76051E-02 -0.82723E-02 -0.85273E-02 -0.82877E-02 -0.75734E-02 -0.64575E-02
 -0.50506E-02 -0.35093E-02 -0.20005E-02 -0.62027E-03  0.64630E-03  0.18632E-02
  0.30459E-02  0.41300E-02  0.50164E-02  0.56263E-02  0.59267E-02  0.59428E-02
  0.57537E-02  0.54471E-02  0.50641E-02  0.46158E-02  0.41677E-02  0.38729E-02
  0.38729E-02  0.41678E-02  0.46160E-02  0.50643E-02  0.54473E-02  0.57540E-02
  0.59431E-02  0.59270E-02  0.56266E-02  0.50167E-02  0.41302E-02  0.30461E-02
  0.18634E-02  0.64647E-03 -0.62014E-03 -0.20004E-02 -0.35092E-02 -0.50506E-02
 -0.64575E-02 -0.75734E-02 -0.82877E-02 -0.62239E-02 -0.65453E-02 -0.66030E-02
 -0.63306E-02 -0.56804E-02 -0.46633E-02 -0.33894E-02 -0.20339E-02 -0.73321E-03
  0.48822E-03  0.16781E-02  0.28478E-02  0.39163E-02  0.47598E-02  0.52913E-02
  0.54822E-02  0.53315E-02  0.48558E-02  0.41111E-02  0.31970E-02  0.22247E-02
  0.13001E-02  0.54674E-03  0.11350E-03  0.11353E-03  0.54682E-03  0.13002E-02
  0.22249E-02  0.31972E-02  0.41114E-02  0.48561E-02  0.53318E-02  0.54824E-02
  0.52916E-02  0.47600E-02  0.39166E-02  0.28480E-02  0.16783E-02  0.48839E-03
 -0.73306E-03 -0.20338E-02 -0.33893E-02 -0.46632E-02 -0.56803E-02 -0.63306E-02
 -0.48947E-02 -0.50408E-02 -0.50257E-02 -0.47620E-02 -0.41626E-02 -0.32341E-02
 -0.21022E-02 -0.92097E-03  0.23702E-03  0.13842E-02  0.25193E-02  0.35514E-02
  0.43350E-02  0.47682E-02  0.48367E-02  0.45650E-02  0.39502E-02  0.29644E-02
  0.16190E-02  0.12349E-04 -0.16820E-02 -0.32527E-02 -0.44781E-02 -0.51549E-02
 -0.51549E-02 -0.44780E-02 -0.32526E-02 -0.16818E-02  0.12528E-04  0.16192E-02
  0.29646E-02  0.39505E-02  0.45653E-02  0.48369E-02  0.47685E-02  0.43353E-02
  0.35516E-02  0.25195E-02  0.13844E-02  0.23721E-03 -0.92080E-03 -0.21020E-02
 -0.32340E-02 -0.41625E-02 -0.47619E-02 -0.36648E-02 -0.37751E-02 -0.37810E-02
 -0.35647E-02 -0.30333E-02 -0.22133E-02 -0.12250E-02 -0.16894E-03  0.92560E-03
  0.20320E-02  0.30448E-02  0.38017E-02  0.41824E-02  0.41621E-02  0.37631E-02
  0.29700E-02  0.17099E-02 -0.81540E-04 -0.23722E-02 -0.49963E-02 -0.76812E-02
 -0.10104E-01 -0.11945E-01 -0.12941E-01 -0.12941E-01 -0.11945E-01 -0.10104E-01
 -0.76811E-02 -0.49962E-02 -0.23720E-02 -0.81332E-04  0.17101E-02  0.29703E-02
  0.37634E-02  0.41624E-02  0.41826E-02  0.38020E-02  0.30450E-02  0.20322E-02
  0.92581E-03 -0.16874E-03 -0.12248E-02 -0.22131E-02 -0.30331E-02 -0.35646E-02
 -0.25206E-02 -0.27180E-02 -0.28228E-02 -0.26979E-02 -0.22723E-02 -0.15909E-02
 -0.73916E-03  0.23821E-03  0.13015E-02  0.23285E-02  0.31240E-02  0.35345E-02
  0.35187E-02  0.30826E-02  0.21672E-02  0.63100E-03 -0.16541E-02 -0.46936E-02
 -0.83340E-02 -0.12292E-01 -0.16200E-01 -0.19646E-01 -0.22228E-01 -0.23612E-01
 -0.23612E-01 -0.22228E-01 -0.19646E-01 -0.16200E-01 -0.12292E-01 -0.83338E-02
 -0.46934E-02 -0.16539E-02  0.63123E-03  0.21675E-02  0.30828E-02  0.35189E-02
  0.35348E-02  0.31243E-02  0.23288E-02  0.13018E-02  0.23844E-03 -0.73895E-03
 -0.15907E-02 -0.22721E-02 -0.26977E-02 -0.13483E-02 -0.17628E-02 -0.20765E-02
 -0.21352E-02 -0.18898E-02 -0.13827E-02 -0.65294E-03  0.27548E-03  0.12987E-02
  0.21950E-02  0.27409E-02  0.28411E-02  0.24888E-02  0.16053E-02 -0.25396E-04
 -0.26340E-02 -0.62960E-02 -0.10885E-01 -0.16140E-01 -0.21726E-01 -0.27221E-01
 -0.32099E-01 -0.35783E-01 -0.37771E-01 -0.37771E-01 -0.35783E-01 -0.32099E-01
 -0.27221E-01 -0.21725E-01 -0.16140E-01 -0.10885E-01 -0.62958E-02 -0.26337E-02
 -0.25168E-04  0.16056E-02  0.24890E-02  0.28413E-02  0.27412E-02  0.21953E-02
  0.12990E-02  0.27573E-03 -0.65271E-03 -0.13825E-02 -0.18896E-02 -0.21350E-02
  0.43256E-04 -0.78793E-03 -0.15280E-02 -0.19584E-02 -0.20049E-02 -0.16856E-02
 -0.10286E-02 -0.10747E-03  0.87524E-03  0.16393E-02  0.19890E-02  0.18618E-02
  0.11770E-02 -0.30451E-03 -0.29033E-02 -0.68097E-02 -0.11991E-01 -0.18285E-01
 -0.25494E-01 -0.33330E-01 -0.41264E-01 -0.48483E-01 -0.54029E-01 -0.57049E-01
 -0.57049E-01 -0.54029E-01 -0.48483E-01 -0.41264E-01 -0.33330E-01 -0.25494E-01
 -0.18285E-01 -0.11991E-01 -0.68095E-02 -0.29031E-02 -0.30428E-03  0.11773E-02
  0.18620E-02  0.19893E-02  0.16395E-02  0.87552E-03 -0.10720E-03 -0.10284E-02
 -0.16854E-02 -0.20047E-02 -0.19583E-02  0.20101E-02  0.38014E-03 -0.12219E-02
 -0.23697E-02 -0.28599E-02 -0.26892E-02 -0.19773E-02 -0.95892E-03  0.40721E-04
  0.73570E-03  0.98111E-03  0.67923E-03 -0.40302E-03 -0.26351E-02 -0.63158E-02
 -0.11536E-01 -0.18284E-01 -0.26599E-01 -0.36495E-01 -0.47671E-01 -0.59288E-01
 -0.70021E-01 -0.78338E-01 -0.82892E-01 -0.82892E-01 -0.78338E-01 -0.70021E-01
 -0.59288E-01 -0.47671E-01 -0.36495E-01 -0.26599E-01 -0.18284E-01 -0.11536E-01
 -0.63156E-02 -0.26349E-02 -0.40278E-03  0.67950E-03  0.98139E-03  0.73598E-03
  0.41002E-04 -0.95865E-03 -0.19770E-02 -0.26889E-02 -0.28597E-02 -0.23696E-02
  0.51706E-02  0.20467E-02 -0.11994E-02 -0.36567E-02 -0.48240E-02 -0.47081E-02
 -0.36975E-02 -0.23534E-02 -0.11727E-02 -0.42103E-03 -0.19366E-03 -0.66081E-03
 -0.21913E-02 -0.51817E-02 -0.98440E-02 -0.16285E-01 -0.24761E-01 -0.35676E-01
 -0.49191E-01 -0.64797E-01 -0.81217E-01 -0.96568E-01 -0.10864E+00 -0.11534E+00
 -0.11534E+00 -0.10864E+00 -0.96568E-01 -0.81217E-01 -0.64797E-01 -0.49191E-01
 -0.35676E-01 -0.24760E-01 -0.16284E-01 -0.98438E-02 -0.51816E-02 -0.21911E-02
 -0.66056E-03 -0.19339E-03 -0.42074E-03 -0.11724E-02 -0.23531E-02 -0.36972E-02
 -0.47079E-02 -0.48238E-02 -0.36566E-02  0.10200E-01  0.45582E-02 -0.14734E-02
 -0.61042E-02 -0.83052E-02 -0.81321E-02 -0.64630E-02 -0.44045E-02 -0.27345E-02
 -0.17267E-02 -0.14298E-02 -0.20492E-02 -0.39852E-02 -0.75688E-02 -0.12983E-01
 -0.20557E-01 -0.30973E-01 -0.44937E-01 -0.62589E-01 -0.83267E-01 -0.10558E+00
 -0.12731E+00 -0.14518E+00 -0.15544E+00 -0.15544E+00 -0.14518E+00 -0.12731E+00
 -0.10558E+00 -0.83268E-01 -0.62589E-01 -0.44937E-01 -0.30973E-01 -0.20557E-01
 -0.12983E-01 -0.75686E-02 -0.39850E-02 -0.20490E-02 -0.14295E-02 -0.17264E-02
 -0.27343E-02 -0.44042E-02 -0.64628E-02 -0.81320E-02 -0.83051E-02 -0.61042E-02
  0.17197E-01  0.79843E-02 -0.20045E-02 -0.97139E-02 -0.13356E-01 -0.13049E-01
 -0.10345E-01 -0.71103E-02 -0.45551E-02 -0.30391E-02 -0.25619E-02 -0.32694E-02
 -0.54634E-02 -0.93756E-02 -0.15275E-01 -0.23836E-01 -0.36104E-01 -0.52918E-01
 -0.74521E-01 -0.10077E+00 -0.13103E+00 -0.16292E+00 -0.19101E+00 -0.20784E+00
 -0.20784E+00 -0.19101E+00 -0.16292E+00 -0.13103E+00 -0.10077E+00 -0.74522E-01
 -0.52918E-01 -0.36104E-01 -0.23836E-01 -0.15275E-01 -0.93755E-02 -0.54633E-02
 -0.32692E-02 -0.25617E-02 -0.30388E-02 -0.45548E-02 -0.71101E-02 -0.10345E-01
 -0.13048E-01 -0.13356E-01 -0.97139E-02  0.24922E-01  0.11756E-01 -0.26270E-02
 -0.13775E-01 -0.19051E-01 -0.18610E-01 -0.14711E-01 -0.10043E-01 -0.63445E-02
 -0.41409E-02 -0.33814E-02 -0.40617E-02 -0.62982E-02 -0.10238E-01 -0.16298E-01
 -0.25441E-01 -0.38875E-01 -0.57545E-01 -0.82354E-01 -0.11478E+00 -0.15590E+00
 -0.20301E+00 -0.24684E+00 -0.27389E+00 -0.27389E+00 -0.24684E+00 -0.20301E+00
 -0.15590E+00 -0.11478E+00 -0.82354E-01 -0.57545E-01 -0.38875E-01 -0.25441E-01
 -0.16298E-01 -0.10237E-01 -0.62980E-02 -0.40615E-02 -0.33812E-02 -0.41406E-02
 -0.63442E-02 -0.10042E-01 -0.14710E-01 -0.18610E-01 -0.19051E-01 -0.13775E-01
  0.30583E-01  0.14554E-01 -0.30292E-02 -0.16715E-01 -0.23239E-01 -0.22745E-01
 -0.17962E-01 -0.12170E-01 -0.75290E-02 -0.47321E-02 -0.36906E-02 -0.42270E-02
 -0.62669E-02 -0.99008E-02 -0.15656E-01 -0.24590E-01 -0.37888E-01 -0.56730E-01
 -0.83231E-01 -0.12115E+00 -0.17350E+00 -0.23693E+00 -0.29771E+00 -0.33569E+00
 -0.33569E+00 -0.29771E+00 -0.23693E+00 -0.17351E+00 -0.12115E+00 -0.83231E-01
 -0.56731E-01 -0.37888E-01 -0.24590E-01 -0.15656E-01 -0.99007E-02 -0.62667E-02
 -0.42268E-02 -0.36903E-02 -0.47318E-02 -0.75287E-02 -0.12170E-01 -0.17961E-01
 -0.22745E-01 -0.23239E-01 -0.16716E-01  0.30723E-01  0.14714E-01 -0.28914E-02
 -0.16646E-01 -0.23256E-01 -0.22823E-01 -0.18032E-01 -0.12158E-01 -0.73977E-02
 -0.44973E-02 -0.33556E-02 -0.36908E-02 -0.53130E-02 -0.82781E-02 -0.13106E-01
 -0.20733E-01 -0.32185E-01 -0.48868E-01 -0.73906E-01 -0.11262E+00 -0.16912E+00
 -0.23954E+00 -0.30782E+00 -0.35066E+00 -0.35066E+00 -0.30782E+00 -0.23954E+00
 -0.16912E+00 -0.11262E+00 -0.73906E-01 -0.48868E-01 -0.32185E-01 -0.20733E-01
 -0.13106E-01 -0.82780E-02 -0.53129E-02 -0.36906E-02 -0.33554E-02 -0.44971E-02
 -0.73974E-02 -0.12157E-01 -0.18032E-01 -0.22823E-01 -0.23257E-01 -0.16646E-01
  0.23129E-01  0.11129E-01 -0.20877E-02 -0.12441E-01 -0.17451E-01 -0.17165E-01
 -0.13575E-01 -0.91295E-02 -0.54986E-02 -0.32684E-02 -0.23592E-02 -0.25162E-02
 -0.35535E-02 -0.55021E-02 -0.87411E-02 -0.13910E-01 -0.21731E-01 -0.33448E-01
 -0.51988E-01 -0.82137E-01 -0.12744E+00 -0.18460E+00 -0.24022E+00 -0.27514E+00
 -0.27514E+00 -0.24022E+00 -0.18460E+00 -0.12745E+00 -0.82138E-01 -0.51989E-01
 -0.33448E-01 -0.21732E-01 -0.13910E-01 -0.87411E-02 -0.55021E-02 -0.35534E-02
 -0.25160E-02 -0.23590E-02 -0.32681E-02 -0.54983E-02 -0.91293E-02 -0.13575E-01
 -0.17165E-01 -0.17451E-01 -0.12442E-01  0.86345E-02  0.41653E-02 -0.76060E-03
 -0.46251E-02 -0.65018E-02 -0.64040E-02 -0.50679E-02 -0.34049E-02 -0.20412E-02
 -0.12000E-02 -0.85129E-03 -0.89283E-03 -0.12486E-02 -0.19288E-02 -0.30717E-02
 -0.49043E-02 -0.76914E-02 -0.11940E-01 -0.18857E-01 -0.30374E-01 -0.47891E-01
 -0.70080E-01 -0.91691E-01 -0.10526E+00 -0.10526E+00 -0.91692E-01 -0.70081E-01
 -0.47892E-01 -0.30375E-01 -0.18858E-01 -0.11940E-01 -0.76917E-02 -0.49045E-02
 -0.30718E-02 -0.19287E-02 -0.12485E-02 -0.89267E-03 -0.85108E-03 -0.11998E-02
 -0.20409E-02 -0.34047E-02 -0.50678E-02 -0.64039E-02 -0.65019E-02 -0.46253E-02
 -0.86338E-02 -0.41649E-02  0.76054E-03  0.46246E-02  0.65009E-02  0.64030E-02
  0.50671E-02  0.34043E-02  0.20407E-02  0.11998E-02  0.85116E-03  0.89278E-03
  0.12486E-02  0.19288E-02  0.30718E-02  0.49043E-02  0.76914E-02  0.11940E-01
  0.18857E-01  0.30374E-01  0.47891E-01  0.70079E-01  0.91690E-01  0.10526E+00
  0.10525E+00  0.91689E-01  0.70078E-01  0.47889E-01  0.30373E-01  0.18857E-01
  0.11939E-01  0.76911E-02  0.49041E-02  0.30717E-02  0.19288E-02  0.12487E-02
  0.89294E-03  0.85137E-03  0.12000E-02  0.20410E-02  0.34045E-02  0.50672E-02
  0.64031E-02  0.65009E-02  0.46244E-02 -0.23128E-01 -0.11128E-01  0.20878E-02
  0.12441E-01  0.17450E-01  0.17165E-01  0.13574E-01  0.91289E-02  0.54982E-02
  0.32681E-02  0.23591E-02  0.25162E-02  0.35535E-02  0.55022E-02  0.87411E-02
  0.13910E-01  0.21731E-01  0.33448E-01  0.51988E-01  0.82137E-01  0.12744E+00
  0.18460E+00  0.24022E+00  0.27514E+00  0.27514E+00  0.24022E+00  0.18460E+00
  0.12744E+00  0.82136E-01  0.51988E-01  0.33447E-01  0.21731E-01  0.13910E-01
  0.87411E-02  0.55022E-02  0.35536E-02  0.25163E-02  0.23593E-02  0.32684E-02
  0.54984E-02  0.91292E-02  0.13575E-01  0.17165E-01  0.17450E-01  0.12441E-01
 -0.30722E-01 -0.14713E-01  0.28918E-02  0.16646E-01  0.23256E-01  0.22822E-01
  0.18032E-01  0.12157E-01  0.73974E-02  0.44971E-02  0.33555E-02  0.36907E-02
  0.53130E-02  0.82781E-02  0.13106E-01  0.20733E-01  0.32185E-01  0.48868E-01
  0.73906E-01  0.11262E+00  0.16912E+00  0.23954E+00  0.30782E+00  0.35066E+00
  0.35066E+00  0.30782E+00  0.23954E+00  0.16912E+00  0.11262E+00  0.73905E-01
  0.48867E-01  0.32185E-01  0.20733E-01  0.13106E-01  0.82782E-02  0.53132E-02
  0.36909E-02  0.33557E-02  0.44974E-02  0.73976E-02  0.12157E-01  0.18032E-01
  0.22822E-01  0.23256E-01  0.16646E-01 -0.30582E-01 -0.14553E-01  0.30298E-02
  0.16716E-01  0.23238E-01  0.22744E-01  0.17961E-01  0.12170E-01  0.75288E-02
  0.47319E-02  0.36905E-02  0.42269E-02  0.62669E-02  0.99009E-02  0.15656E-01
  0.24590E-01  0.37888E-01  0.56730E-01  0.83231E-01  0.12115E+00  0.17350E+00
  0.23693E+00  0.29771E+00  0.33569E+00  0.33569E+00  0.29771E+00  0.23693E+00
  0.17350E+00  0.12115E+00  0.83230E-01  0.56730E-01  0.37888E-01  0.24590E-01
  0.15656E-01  0.99009E-02  0.62670E-02  0.42271E-02  0.36907E-02  0.47322E-02
  0.75290E-02  0.12170E-01  0.17961E-01  0.22745E-01  0.23238E-01  0.16715E-01
 -0.24922E-01 -0.11755E-01  0.26276E-02  0.13775E-01  0.19051E-01  0.18610E-01
  0.14711E-01  0.10042E-01  0.63444E-02  0.41408E-02  0.33814E-02  0.40617E-02
  0.62982E-02  0.10238E-01  0.16298E-01  0.25441E-01  0.38875E-01  0.57545E-01
  0.82354E-01  0.11478E+00  0.15590E+00  0.20301E+00  0.24684E+00  0.27389E+00
  0.27389E+00  0.24684E+00  0.20301E+00  0.15590E+00  0.11478E+00  0.82354E-01
  0.57545E-01  0.38875E-01  0.25441E-01  0.16298E-01  0.10238E-01  0.62984E-02
  0.40619E-02  0.33816E-02  0.41411E-02  0.63446E-02  0.10043E-01  0.14711E-01
  0.18610E-01  0.19051E-01  0.13775E-01 -0.17196E-01 -0.79837E-02  0.20050E-02
  0.97142E-02  0.13356E-01  0.13049E-01  0.10345E-01  0.71102E-02  0.45550E-02
  0.30390E-02  0.25619E-02  0.32694E-02  0.54635E-02  0.93757E-02  0.15275E-01
  0.23836E-01  0.36104E-01  0.52918E-01  0.74521E-01  0.10077E+00  0.13103E+00
  0.16292E+00  0.19101E+00  0.20784E+00  0.20784E+00  0.19101E+00  0.16292E+00
  0.13103E+00  0.10077E+00  0.74521E-01  0.52918E-01  0.36104E-01  0.23836E-01
  0.15275E-01  0.93758E-02  0.54637E-02  0.32697E-02  0.25622E-02  0.30393E-02
  0.45553E-02  0.71105E-02  0.10345E-01  0.13049E-01  0.13356E-01  0.97141E-02
 -0.10200E-01 -0.45578E-02  0.14738E-02  0.61044E-02  0.83053E-02  0.81322E-02
  0.64630E-02  0.44044E-02  0.27345E-02  0.17267E-02  0.14298E-02  0.20492E-02
  0.39853E-02  0.75689E-02  0.12983E-01  0.20557E-01  0.30973E-01  0.44937E-01
  0.62589E-01  0.83267E-01  0.10558E+00  0.12731E+00  0.14518E+00  0.15544E+00
  0.15544E+00  0.14518E+00  0.12731E+00  0.10558E+00  0.83267E-01  0.62589E-01
  0.44937E-01  0.30973E-01  0.20557E-01  0.12983E-01  0.75690E-02  0.39855E-02
  0.20495E-02  0.14300E-02  0.17270E-02  0.27347E-02  0.44047E-02  0.64632E-02
  0.81323E-02  0.83054E-02  0.61045E-02 -0.51705E-02 -0.20466E-02  0.11995E-02
  0.36567E-02  0.48240E-02  0.47081E-02  0.36974E-02  0.23533E-02  0.11727E-02
  0.42101E-03  0.19368E-03  0.66086E-03  0.21914E-02  0.51818E-02  0.98441E-02
  0.16285E-01  0.24761E-01  0.35676E-01  0.49191E-01  0.64797E-01  0.81217E-01
  0.96568E-01  0.10864E+00  0.11534E+00  0.11534E+00  0.10864E+00  0.96568E-01
  0.81217E-01  0.64797E-01  0.49191E-01  0.35676E-01  0.24761E-01  0.16285E-01
  0.98442E-02  0.51820E-02  0.21916E-02  0.66110E-03  0.19394E-03  0.42128E-03
  0.11729E-02  0.23536E-02  0.36977E-02  0.47083E-02  0.48242E-02  0.36568E-02
 -0.20101E-02 -0.38014E-03  0.12219E-02  0.23697E-02  0.28598E-02  0.26891E-02
  0.19772E-02  0.95887E-03 -0.40752E-04 -0.73570E-03 -0.98109E-03 -0.67918E-03
  0.40311E-03  0.26352E-02  0.63159E-02  0.11536E-01  0.18284E-01  0.26599E-01
  0.36495E-01  0.47671E-01  0.59288E-01  0.70021E-01  0.78338E-01  0.82892E-01
  0.82892E-01  0.78338E-01  0.70021E-01  0.59288E-01  0.47671E-01  0.36495E-01
  0.26599E-01  0.18284E-01  0.11536E-01  0.63161E-02  0.26354E-02  0.40333E-03
 -0.67893E-03 -0.98082E-03 -0.73544E-03 -0.40485E-04  0.95912E-03  0.19774E-02
  0.26893E-02  0.28600E-02  0.23698E-02 -0.43366E-04  0.78784E-03  0.15279E-02
  0.19584E-02  0.20048E-02  0.16856E-02  0.10286E-02  0.10742E-03 -0.87527E-03
 -0.16393E-02 -0.19890E-02 -0.18617E-02 -0.11770E-02  0.30463E-03  0.29035E-02
  0.68098E-02  0.11991E-01  0.18285E-01  0.25494E-01  0.33330E-01  0.41264E-01
  0.48484E-01  0.54029E-01  0.57050E-01  0.57050E-01  0.54029E-01  0.48484E-01
  0.41264E-01  0.33330E-01  0.25494E-01  0.18285E-01  0.11991E-01  0.68100E-02
  0.29037E-02  0.30485E-03 -0.11767E-02 -0.18614E-02 -0.19887E-02 -0.16390E-02
 -0.87501E-03  0.10766E-03  0.10288E-02  0.16858E-02  0.20050E-02  0.19585E-02
  0.13481E-02  0.17626E-02  0.20764E-02  0.21351E-02  0.18897E-02  0.13826E-02
  0.65286E-03 -0.27554E-03 -0.12987E-02 -0.21950E-02 -0.27409E-02 -0.28410E-02
 -0.24887E-02 -0.16052E-02  0.25550E-04  0.26341E-02  0.62962E-02  0.10885E-01
  0.16140E-01  0.21726E-01  0.27221E-01  0.32099E-01  0.35783E-01  0.37771E-01
  0.37771E-01  0.35783E-01  0.32099E-01  0.27221E-01  0.21726E-01  0.16140E-01
  0.10885E-01  0.62963E-02  0.26343E-02  0.25764E-04 -0.16049E-02 -0.24884E-02
 -0.28407E-02 -0.27406E-02 -0.21947E-02 -0.12985E-02 -0.27530E-03  0.65308E-03
  0.13828E-02  0.18899E-02  0.21352E-02  0.25204E-02  0.27178E-02  0.28227E-02
  0.26977E-02  0.22721E-02  0.15908E-02  0.73908E-03 -0.23828E-03 -0.13016E-02
 -0.23285E-02 -0.31240E-02 -0.35344E-02 -0.35186E-02 -0.30824E-02 -0.21671E-02
 -0.63082E-03  0.16543E-02  0.46938E-02  0.83342E-02  0.12292E-01  0.16200E-01
  0.19647E-01  0.22228E-01  0.23613E-01  0.23613E-01  0.22228E-01  0.19647E-01
  0.16200E-01  0.12292E-01  0.83344E-02  0.46940E-02  0.16545E-02 -0.63060E-03
 -0.21668E-02 -0.30822E-02 -0.35183E-02 -0.35342E-02 -0.31237E-02 -0.23283E-02
 -0.13013E-02 -0.23806E-03  0.73928E-03  0.15910E-02  0.22723E-02  0.26979E-02
  0.36646E-02  0.37750E-02  0.37808E-02  0.35646E-02  0.30331E-02  0.22131E-02
  0.12249E-02  0.16888E-03 -0.92563E-03 -0.20320E-02 -0.30448E-02 -0.38016E-02
 -0.41823E-02 -0.41620E-02 -0.37630E-02 -0.29698E-02 -0.17097E-02  0.81782E-04
  0.23725E-02  0.49966E-02  0.76815E-02  0.10104E-01  0.11945E-01  0.12942E-01
  0.12942E-01  0.11945E-01  0.10104E-01  0.76817E-02  0.49968E-02  0.23727E-02
  0.81979E-04 -0.17095E-02 -0.29696E-02 -0.37627E-02 -0.41618E-02 -0.41820E-02
 -0.38014E-02 -0.30445E-02 -0.20318E-02 -0.92542E-03  0.16907E-03  0.12251E-02
  0.22133E-02  0.30333E-02  0.35647E-02  0.48945E-02  0.50407E-02  0.50256E-02
  0.47619E-02  0.41625E-02  0.32340E-02  0.21021E-02  0.92091E-03 -0.23706E-03
 -0.13842E-02 -0.25192E-02 -0.35513E-02 -0.43349E-02 -0.47681E-02 -0.48365E-02
 -0.45648E-02 -0.39500E-02 -0.29642E-02 -0.16188E-02 -0.12080E-04  0.16822E-02
  0.32530E-02  0.44784E-02  0.51552E-02  0.51552E-02  0.44784E-02  0.32531E-02
  0.16824E-02 -0.11909E-04 -0.16186E-02 -0.29639E-02 -0.39498E-02 -0.45646E-02
 -0.48363E-02 -0.47678E-02 -0.43347E-02 -0.35511E-02 -0.25190E-02 -0.13840E-02
 -0.23688E-03  0.92106E-03  0.21022E-02  0.32341E-02  0.41626E-02  0.47620E-02
  0.62237E-02  0.65451E-02  0.66028E-02  0.63305E-02  0.56802E-02  0.46632E-02
  0.33893E-02  0.20339E-02  0.73318E-03 -0.48822E-03 -0.16781E-02 -0.28477E-02
 -0.39162E-02 -0.47597E-02 -0.52912E-02 -0.54820E-02 -0.53313E-02 -0.48556E-02
 -0.41109E-02 -0.31968E-02 -0.22245E-02 -0.12999E-02 -0.54652E-03 -0.11326E-03
 -0.11323E-03 -0.54644E-03 -0.12997E-02 -0.22243E-02 -0.31966E-02 -0.41107E-02
 -0.48554E-02 -0.53311E-02 -0.54817E-02 -0.52909E-02 -0.47594E-02 -0.39160E-02
 -0.28475E-02 -0.16779E-02 -0.48806E-03  0.73332E-03  0.20340E-02  0.33894E-02
  0.46632E-02  0.56803E-02  0.63305E-02  0.76050E-02  0.82722E-02  0.85271E-02
  0.82876E-02  0.75733E-02  0.64574E-02  0.50506E-02  0.35092E-02  0.20005E-02
  0.62028E-03 -0.64627E-03 -0.18631E-02 -0.30458E-02 -0.41299E-02 -0.50163E-02
 -0.56262E-02 -0.59265E-02 -0.59426E-02 -0.57535E-02 -0.54469E-02 -0.50640E-02
 -0.46158E-02 -0.41677E-02 -0.38728E-02 -0.38728E-02 -0.41676E-02 -0.46156E-02
 -0.50638E-02 -0.54467E-02 -0.57533E-02 -0.59424E-02 -0.59263E-02 -0.56259E-02
 -0.50160E-02 -0.41296E-02 -0.30456E-02 -0.18629E-02 -0.64611E-03  0.62040E-03
  0.20006E-02  0.35093E-02  0.50506E-02  0.64574E-02  0.75732E-02  0.82876E-02
  0.90572E-02  0.10311E-01  0.10925E-01  0.10739E-01  0.98669E-02  0.85455E-02
  0.69669E-02  0.52610E-02  0.35552E-02  0.19720E-02  0.56216E-03 -0.71464E-03
 -0.19221E-02 -0.30722E-02 -0.41192E-02 -0.50080E-02 -0.57277E-02 -0.63304E-02
 -0.68889E-02 -0.74051E-02 -0.77650E-02 -0.78386E-02 -0.76567E-02 -0.74495E-02
 -0.74495E-02 -0.76566E-02 -0.78384E-02 -0.77648E-02 -0.74049E-02 -0.68886E-02
 -0.63301E-02 -0.57274E-02 -0.50078E-02 -0.41190E-02 -0.30720E-02 -0.19219E-02
 -0.71448E-03  0.56229E-03  0.19721E-02  0.35552E-02  0.52610E-02  0.69669E-02
  0.85454E-02  0.98668E-02  0.10739E-01  0.10537E-01  0.12739E-01  0.13962E-01
  0.13864E-01  0.12669E-01  0.10907E-01  0.90016E-02  0.71141E-02  0.52779E-02
  0.35466E-02  0.19877E-02  0.60982E-03 -0.63687E-03 -0.17951E-02 -0.28719E-02
 -0.38875E-02 -0.49409E-02 -0.61970E-02 -0.77530E-02 -0.94682E-02 -0.10954E-01
 -0.11832E-01 -0.12064E-01 -0.11993E-01 -0.11993E-01 -0.12064E-01 -0.11832E-01
 -0.10954E-01 -0.94679E-02 -0.77527E-02 -0.61968E-02 -0.49406E-02 -0.38873E-02
 -0.28717E-02 -0.17949E-02 -0.63670E-03  0.60995E-03  0.19878E-02  0.35466E-02
  0.52779E-02  0.71140E-02  0.90015E-02  0.10907E-01  0.12669E-01  0.13864E-01
  0.11376E-01  0.14977E-01  0.17231E-01  0.17439E-01  0.15879E-01  0.13466E-01
  0.11021E-01  0.88635E-02  0.69459E-02  0.51816E-02  0.35733E-02  0.21381E-02
  0.84750E-03 -0.33629E-03 -0.14382E-02 -0.25509E-02 -0.39336E-02 -0.59497E-02
 -0.87810E-02 -0.12120E-01 -0.15196E-01 -0.17256E-01 -0.18130E-01 -0.18292E-01
 -0.18292E-01 -0.18129E-01 -0.17256E-01 -0.15196E-01 -0.12120E-01 -0.87807E-02
 -0.59495E-02 -0.39333E-02 -0.25506E-02 -0.14380E-02 -0.33610E-03  0.84764E-03
  0.21382E-02  0.35734E-02  0.51816E-02  0.69458E-02  0.88633E-02  0.11021E-01
  0.13465E-01  0.15878E-01  0.17438E-01  0.99114E-02  0.15262E-01  0.19130E-01
  0.20229E-01  0.18693E-01  0.15772E-01  0.12773E-01  0.10307E-01  0.83337E-02
  0.66394E-02  0.51252E-02  0.37697E-02  0.25299E-02  0.13579E-02  0.21598E-03
 -0.10503E-02 -0.28674E-02 -0.58269E-02 -0.10215E-01 -0.15523E-01 -0.20512E-01
 -0.23973E-01 -0.25583E-01 -0.25997E-01 -0.25997E-01 -0.25583E-01 -0.23972E-01
 -0.20512E-01 -0.15523E-01 -0.10214E-01 -0.58267E-02 -0.28671E-02 -0.10500E-02
  0.21617E-03  0.13581E-02  0.25301E-02  0.37697E-02  0.51252E-02  0.66393E-02
  0.83335E-02  0.10307E-01  0.12772E-01  0.15771E-01  0.18693E-01  0.20228E-01
  0.42843E-02  0.11328E-01  0.17333E-01  0.20207E-01  0.19622E-01  0.16911E-01
  0.13789E-01  0.11224E-01  0.92992E-02  0.77603E-02  0.64468E-02  0.53030E-02
  0.42556E-02  0.32185E-02  0.21148E-02  0.71723E-03 -0.15590E-02 -0.55062E-02
 -0.11472E-01 -0.18699E-01 -0.25443E-01 -0.30049E-01 -0.32124E-01 -0.32611E-01
 -0.32611E-01 -0.32124E-01 -0.30049E-01 -0.25443E-01 -0.18699E-01 -0.11472E-01
 -0.55060E-02 -0.15588E-02  0.71743E-03  0.21150E-02  0.32186E-02  0.42557E-02
  0.53030E-02  0.64467E-02  0.77601E-02  0.92990E-02  0.11224E-01  0.13789E-01
  0.16910E-01  0.19621E-01  0.20206E-01  0.18573E-01  0.10583E-01  0.77852E-03
 -0.72718E-02 -0.11571E-01 -0.12485E-01 -0.11674E-01 -0.10543E-01 -0.96045E-02
 -0.88294E-02 -0.81571E-02 -0.75983E-02 -0.71165E-02 -0.66153E-02 -0.59687E-02
 -0.48567E-02 -0.25374E-02  0.19317E-02  0.88329E-02  0.16972E-01  0.23971E-01
  0.27844E-01  0.28563E-01  0.27985E-01  0.27985E-01  0.28562E-01  0.27843E-01
  0.23971E-01  0.16972E-01  0.88327E-02  0.19317E-02 -0.25373E-02 -0.48566E-02
 -0.59685E-02 -0.66151E-02 -0.71165E-02 -0.75983E-02 -0.81572E-02 -0.88296E-02
 -0.96048E-02 -0.10544E-01 -0.11675E-01 -0.12486E-01 -0.11572E-01 -0.72729E-02
  0.80821E-02 -0.10586E-02 -0.10462E-01 -0.16700E-01 -0.18452E-01 -0.16868E-01
 -0.14095E-01 -0.11614E-01 -0.97716E-02 -0.83558E-02 -0.71994E-02 -0.62688E-02
 -0.55049E-02 -0.48009E-02 -0.40540E-02 -0.30495E-02 -0.13245E-02  0.15258E-02
  0.50481E-02  0.74440E-02  0.63928E-02  0.10435E-02 -0.65039E-02 -0.12006E-01
 -0.12006E-01 -0.65043E-02  0.10430E-02  0.63923E-02  0.74437E-02  0.50480E-02
  0.15258E-02 -0.13244E-02 -0.30493E-02 -0.40539E-02 -0.48008E-02 -0.55048E-02
 -0.62688E-02 -0.71995E-02 -0.83560E-02 -0.97719E-02 -0.11614E-01 -0.14096E-01
 -0.16869E-01 -0.18453E-01 -0.16701E-01 -0.36179E-02 -0.12668E-01 -0.20432E-01
 -0.24104E-01 -0.23208E-01 -0.19489E-01 -0.15244E-01 -0.11801E-01 -0.93007E-02
 -0.73964E-02 -0.58580E-02 -0.46126E-02 -0.35765E-02 -0.26498E-02 -0.17920E-02
 -0.96217E-03 -0.72198E-04  0.67258E-03  0.12962E-03 -0.38891E-02 -0.13358E-01
 -0.27843E-01 -0.43257E-01 -0.53332E-01 -0.53333E-01 -0.43258E-01 -0.27843E-01
 -0.13359E-01 -0.38893E-02  0.12957E-03  0.67265E-03 -0.72051E-04 -0.96199E-03
 -0.17919E-02 -0.26497E-02 -0.35764E-02 -0.46126E-02 -0.58581E-02 -0.73966E-02
 -0.93010E-02 -0.11802E-01 -0.15244E-01 -0.19490E-01 -0.23209E-01 -0.24105E-01
 -0.12253E-01 -0.19997E-01 -0.25512E-01 -0.26839E-01 -0.24178E-01 -0.19449E-01
 -0.14711E-01 -0.10969E-01 -0.81848E-02 -0.59842E-02 -0.41495E-02 -0.26081E-02
 -0.12850E-02 -0.12072E-03  0.84690E-03  0.15020E-02  0.16235E-02  0.54590E-03
 -0.33052E-02 -0.12213E-01 -0.27685E-01 -0.48287E-01 -0.68701E-01 -0.81583E-01
 -0.81583E-01 -0.68701E-01 -0.48287E-01 -0.27685E-01 -0.12213E-01 -0.33051E-02
  0.54604E-03  0.16237E-02  0.15022E-02  0.84710E-03 -0.12055E-03 -0.12849E-02
 -0.26080E-02 -0.41495E-02 -0.59843E-02 -0.81850E-02 -0.10969E-01 -0.14712E-01