       #
       # Generated by the Wannier90 code http://www.wannier.org
       # On 29Dec2023 at 23:55:10 
       #
CRYSTAL
PRIMVEC
   4.1863376   0.0000000   0.0000000
   0.0000000   4.1863376   0.0000000
   0.0000000   0.0000000   4.1863376
CONVVEC
   4.1863376   0.0000000   0.0000000
   0.0000000   4.1863376   0.0000000
   0.0000000   0.0000000   4.1863376
PRIMCOORD
     8  1
O       0.0000000   0.0000000   0.0000000
O       0.0000000   2.0931688   2.0931688
O       2.0931688   0.0000000   2.0931688
O       2.0931688   2.0931688   0.0000000
Ni      0.0000000   0.0000000   2.0931688
Ni      2.0931688   0.0000000   0.0000000
Ni      0.0000000   2.0931688   0.0000000
Ni      2.0931688   2.0931688   2.0931688


BEGIN_BLOCK_DATAGRID_3D
3D_field
BEGIN_DATAGRID_3D_UNKNOWN
    45    45    45
   -0.093030   -0.093030   -0.093030
   4.0933079   0.0000000   0.0000000
   0.0000000   4.0933079   0.0000000
   0.0000000   0.0000000   4.0933079
 -0.91639E-02 -0.85817E-02 -0.61483E-02 -0.28922E-02 -0.65185E-04  0.16234E-02
  0.22158E-02  0.21584E-02  0.18600E-02  0.15172E-02  0.11850E-02  0.88175E-03
  0.62034E-03  0.39917E-03  0.20136E-03 -0.33766E-05 -0.26392E-03 -0.63995E-03
 -0.11585E-02 -0.17488E-02 -0.22099E-02 -0.22688E-02 -0.17331E-02 -0.65178E-03
  0.65172E-03  0.17330E-02  0.22687E-02  0.22099E-02  0.17487E-02  0.11584E-02
  0.63995E-03  0.26393E-03  0.33913E-05 -0.20135E-03 -0.39916E-03 -0.62032E-03
 -0.88174E-03 -0.11850E-02 -0.15172E-02 -0.18600E-02 -0.21584E-02 -0.22158E-02
 -0.16235E-02  0.65111E-04  0.28921E-02 -0.38902E-02 -0.28703E-02 -0.71693E-03
  0.16420E-02  0.32824E-02  0.38503E-02  0.35949E-02  0.29838E-02  0.23424E-02
  0.17793E-02  0.13005E-02  0.90517E-03  0.59566E-03  0.36293E-03  0.19152E-03
  0.70676E-04 -0.71224E-05 -0.52543E-04 -0.80311E-04 -0.10424E-03 -0.12830E-03
 -0.13925E-03 -0.11414E-03 -0.44844E-04  0.44839E-04  0.11414E-03  0.13925E-03
  0.12829E-03  0.10424E-03  0.80312E-04  0.52551E-04  0.71351E-05 -0.70660E-04
 -0.19151E-03 -0.36291E-03 -0.59565E-03 -0.90516E-03 -0.13005E-02 -0.17793E-02
 -0.23424E-02 -0.29838E-02 -0.35950E-02 -0.38504E-02 -0.32825E-02 -0.16420E-02
  0.24519E-02  0.37970E-02  0.53358E-02  0.63910E-02  0.65274E-02  0.58216E-02
  0.47030E-02  0.35854E-02  0.26527E-02  0.19057E-02  0.13056E-02  0.83847E-03
  0.49770E-03  0.26636E-03  0.13149E-03  0.10294E-03  0.21461E-03  0.50477E-03
  0.97224E-03  0.15207E-02  0.19417E-02  0.19865E-02  0.15056E-02  0.56304E-03
 -0.56298E-03 -0.15055E-02 -0.19865E-02 -0.19417E-02 -0.15207E-02 -0.97222E-03
 -0.50475E-03 -0.21459E-03 -0.10293E-03 -0.13147E-03 -0.26635E-03 -0.49769E-03
 -0.83846E-03 -0.13056E-02 -0.19057E-02 -0.26527E-02 -0.35854E-02 -0.47030E-02
 -0.58216E-02 -0.65273E-02 -0.63910E-02  0.74152E-02  0.88240E-02  0.96593E-02
  0.95419E-02  0.84805E-02  0.68700E-02  0.52081E-02  0.38012E-02  0.27008E-02
  0.18386E-02  0.11616E-02  0.65451E-03  0.30323E-03  0.84093E-04 -0.13697E-04
  0.32743E-04  0.28212E-03  0.80443E-03  0.16112E-02  0.25561E-02  0.32950E-02
  0.33976E-02  0.25903E-02  0.97187E-03 -0.97176E-03 -0.25902E-02 -0.33975E-02
 -0.32949E-02 -0.25560E-02 -0.16111E-02 -0.80441E-03 -0.28210E-03 -0.32724E-04
  0.13716E-04 -0.84075E-04 -0.30322E-03 -0.65449E-03 -0.11616E-02 -0.18386E-02
 -0.27007E-02 -0.38012E-02 -0.52081E-02 -0.68700E-02 -0.84804E-02 -0.95419E-02
  0.95569E-02  0.10759E-01  0.11037E-01  0.10253E-01  0.86667E-02  0.67751E-02
  0.50161E-02  0.35792E-02  0.24470E-02  0.15485E-02  0.85003E-03  0.34174E-03
  0.23537E-05 -0.19612E-03 -0.26245E-03 -0.17171E-03  0.13631E-03  0.73794E-03
  0.16534E-02  0.27310E-02  0.35916E-02  0.37465E-02  0.28758E-02  0.10824E-02
 -0.10823E-02 -0.28757E-02 -0.37464E-02 -0.35915E-02 -0.27310E-02 -0.16533E-02
 -0.73792E-03 -0.13629E-03  0.17173E-03  0.26247E-03  0.19613E-03 -0.23370E-05
 -0.34172E-03 -0.85001E-03 -0.15485E-02 -0.24469E-02 -0.35792E-02 -0.50160E-02
 -0.67751E-02 -0.86666E-02 -0.10253E-01  0.90985E-02  0.99429E-02  0.99067E-02
  0.89859E-02  0.74794E-02  0.58034E-02  0.42643E-02  0.29695E-02  0.19035E-02
  0.10406E-02  0.37818E-03 -0.91705E-04 -0.39799E-03 -0.56869E-03 -0.60933E-03
 -0.50078E-03 -0.19932E-03  0.35592E-03  0.11867E-02  0.21696E-02  0.29760E-02
  0.31706E-02  0.24607E-02  0.93068E-03 -0.93056E-03 -0.24606E-02 -0.31705E-02
 -0.29759E-02 -0.21695E-02 -0.11866E-02 -0.35590E-03  0.19934E-03  0.50080E-03
  0.60935E-03  0.56871E-03  0.39800E-03  0.91721E-04 -0.37816E-03 -0.10406E-02
 -0.19035E-02 -0.29695E-02 -0.42643E-02 -0.58034E-02 -0.74793E-02 -0.89858E-02
  0.72515E-02  0.77402E-02  0.75865E-02  0.68255E-02  0.56731E-02  0.43924E-02
  0.31656E-02  0.20671E-02  0.11218E-02  0.35302E-03 -0.22410E-03 -0.62415E-03
 -0.88097E-03 -0.10169E-02 -0.10321E-02 -0.91585E-03 -0.64724E-03 -0.19169E-03
  0.46595E-03  0.12415E-02  0.18992E-02  0.21190E-02  0.16806E-02  0.64134E-03
 -0.64124E-03 -0.16805E-02 -0.21189E-02 -0.18992E-02 -0.12415E-02 -0.46592E-03
  0.19171E-03  0.64726E-03  0.91587E-03  0.10322E-02  0.10169E-02  0.88099E-03
  0.62417E-03  0.22412E-03 -0.35300E-03 -0.11218E-02 -0.20671E-02 -0.31655E-02
 -0.43924E-02 -0.56731E-02 -0.68255E-02  0.51148E-02  0.53408E-02  0.51646E-02
  0.46110E-02  0.37928E-02  0.28472E-02  0.18828E-02  0.97411E-03  0.18055E-03
 -0.45332E-03 -0.91587E-03 -0.12305E-02 -0.14281E-02 -0.15206E-02 -0.15030E-02
 -0.13718E-02 -0.11259E-02 -0.75625E-03 -0.25934E-03  0.31284E-03  0.81612E-03
  0.10525E-02  0.88418E-03  0.34491E-03 -0.34484E-03 -0.88412E-03 -0.10524E-02
 -0.81608E-03 -0.31281E-03  0.25937E-03  0.75627E-03  0.11259E-02  0.13718E-02
  0.15030E-02  0.15206E-02  0.14281E-02  0.12305E-02  0.91588E-03  0.45333E-03
 -0.18053E-03 -0.97409E-03 -0.18827E-02 -0.28471E-02 -0.37928E-02 -0.46110E-02
  0.31613E-02  0.32261E-02  0.30488E-02  0.26327E-02  0.20236E-02  0.12939E-02
  0.52446E-03 -0.20570E-03 -0.83066E-03 -0.13143E-02 -0.16584E-02 -0.18873E-02
 -0.20202E-02 -0.20581E-02 -0.19948E-02 -0.18331E-02 -0.15845E-02 -0.12571E-02
 -0.85848E-03 -0.42100E-03 -0.22072E-04  0.23397E-03  0.27471E-03  0.11825E-03
 -0.11821E-03 -0.27467E-03 -0.23394E-03  0.22103E-04  0.42102E-03  0.85850E-03
  0.12571E-02  0.15846E-02  0.18332E-02  0.19948E-02  0.20581E-02  0.20202E-02
  0.18873E-02  0.16584E-02  0.13143E-02  0.83067E-03  0.20572E-03 -0.52443E-03
 -0.12939E-02 -0.20236E-02 -0.26326E-02  0.14380E-02  0.14085E-02  0.12253E-02
  0.87701E-03  0.38272E-03 -0.20605E-03 -0.81694E-03 -0.13778E-02 -0.18389E-02
 -0.21842E-02 -0.24236E-02 -0.25722E-02 -0.26347E-02 -0.26061E-02 -0.24846E-02
 -0.22795E-02 -0.20070E-02 -0.16826E-02 -0.13199E-02 -0.94039E-03 -0.58243E-03
 -0.29492E-03 -0.11177E-03 -0.24274E-04  0.24305E-04  0.11180E-03  0.29495E-03
  0.58246E-03  0.94041E-03  0.13200E-02  0.16827E-02  0.20070E-02  0.22795E-02
  0.24847E-02  0.26061E-02  0.26347E-02  0.25722E-02  0.24236E-02  0.21842E-02
  0.18389E-02  0.13778E-02  0.81695E-03  0.20606E-03 -0.38270E-03 -0.87698E-03
 -0.73601E-04 -0.16416E-03 -0.36076E-03 -0.67931E-03 -0.11047E-02 -0.15886E-02
 -0.20664E-02 -0.24821E-02 -0.28075E-02 -0.30412E-02 -0.31919E-02 -0.32625E-02
 -0.32479E-02 -0.31446E-02 -0.29581E-02 -0.27025E-02 -0.23945E-02 -0.20495E-02
 -0.16816E-02 -0.13057E-02 -0.94103E-03 -0.61098E-03 -0.33304E-03 -0.10422E-03
  0.10424E-03  0.33306E-03  0.61100E-03  0.94105E-03  0.13057E-02  0.16816E-02
  0.20496E-02  0.23945E-02  0.27025E-02  0.29581E-02  0.31446E-02  0.32479E-02
  0.32625E-02  0.31919E-02  0.30412E-02  0.28075E-02  0.24821E-02  0.20664E-02
  0.15887E-02  0.11047E-02  0.67932E-03 -0.13450E-02 -0.14801E-02 -0.16982E-02
 -0.20113E-02 -0.23975E-02 -0.28079E-02 -0.31876E-02 -0.34978E-02 -0.37249E-02
 -0.38725E-02 -0.39444E-02 -0.39364E-02 -0.38420E-02 -0.36625E-02 -0.34093E-02
 -0.30987E-02 -0.27463E-02 -0.23659E-02 -0.19701E-02 -0.15698E-02 -0.11759E-02
 -0.80196E-03 -0.45967E-03 -0.14877E-03  0.14879E-03  0.45969E-03  0.80198E-03
  0.11759E-02  0.15698E-02  0.19702E-02  0.23660E-02  0.27463E-02  0.30987E-02
  0.34093E-02  0.36625E-02  0.38420E-02  0.39364E-02  0.39444E-02  0.38725E-02
  0.37249E-02  0.34978E-02  0.31876E-02  0.28079E-02  0.23975E-02  0.20113E-02
 -0.23582E-02 -0.25263E-02 -0.27752E-02 -0.31049E-02 -0.34808E-02 -0.38517E-02
 -0.41723E-02 -0.44168E-02 -0.45782E-02 -0.46589E-02 -0.46597E-02 -0.45767E-02
 -0.44068E-02 -0.41547E-02 -0.38338E-02 -0.34614E-02 -0.30541E-02 -0.26264E-02
 -0.21904E-02 -0.17554E-02 -0.13292E-02 -0.92031E-03 -0.53609E-03 -0.17539E-03
  0.17541E-03  0.53610E-03  0.92033E-03  0.13292E-02  0.17554E-02  0.21905E-02
  0.26264E-02  0.30541E-02  0.34614E-02  0.38338E-02  0.41547E-02  0.44068E-02
  0.45767E-02  0.46597E-02  0.46589E-02  0.45782E-02  0.44168E-02  0.41723E-02
  0.38517E-02  0.34808E-02  0.31049E-02 -0.31107E-02 -0.33001E-02 -0.35860E-02
 -0.39513E-02 -0.43444E-02 -0.47093E-02 -0.50080E-02 -0.52223E-02 -0.53460E-02
 -0.53784E-02 -0.53204E-02 -0.51723E-02 -0.49347E-02 -0.46128E-02 -0.42207E-02
 -0.37790E-02 -0.33088E-02 -0.28264E-02 -0.23439E-02 -0.18711E-02 -0.14161E-02
 -0.98444E-03 -0.57753E-03 -0.19002E-03  0.19004E-03  0.57754E-03  0.98446E-03
  0.14161E-02  0.18712E-02  0.23439E-02  0.28264E-02  0.33088E-02  0.37790E-02
  0.42207E-02  0.46128E-02  0.49347E-02  0.51723E-02  0.53204E-02  0.53784E-02
  0.53460E-02  0.52223E-02  0.50080E-02  0.47093E-02  0.43444E-02  0.39513E-02
 -0.35487E-02 -0.37403E-02 -0.40640E-02 -0.44849E-02 -0.49309E-02 -0.53365E-02
 -0.56628E-02 -0.58910E-02 -0.60108E-02 -0.60188E-02 -0.59189E-02 -0.57168E-02
 -0.54158E-02 -0.50225E-02 -0.45552E-02 -0.40418E-02 -0.35074E-02 -0.29681E-02
 -0.24344E-02 -0.19190E-02 -0.14354E-02 -0.99021E-03 -0.57936E-03 -0.19065E-03
  0.19066E-03  0.57937E-03  0.99022E-03  0.14354E-02  0.19190E-02  0.24344E-02
  0.29681E-02  0.35075E-02  0.40418E-02  0.45552E-02  0.50225E-02  0.54158E-02
  0.57168E-02  0.59189E-02  0.60188E-02  0.60108E-02  0.58910E-02  0.56628E-02
  0.53365E-02  0.49309E-02  0.44849E-02 -0.35489E-02 -0.37054E-02 -0.40612E-02
 -0.45672E-02 -0.51281E-02 -0.56552E-02 -0.60904E-02 -0.63990E-02 -0.65614E-02
 -0.65748E-02 -0.64509E-02 -0.62028E-02 -0.58388E-02 -0.53716E-02 -0.48292E-02
 -0.42471E-02 -0.36504E-02 -0.30498E-02 -0.24551E-02 -0.18875E-02 -0.13723E-02
 -0.92230E-03 -0.52947E-03 -0.17256E-03  0.17257E-03  0.52948E-03  0.92231E-03
  0.13724E-02  0.18875E-02  0.24551E-02  0.30498E-02  0.36504E-02  0.42471E-02
  0.48292E-02  0.53716E-02  0.58388E-02  0.62028E-02  0.64509E-02  0.65748E-02
  0.65614E-02  0.63990E-02  0.60904E-02  0.56552E-02  0.51281E-02  0.45672E-02
 -0.29982E-02 -0.30520E-02 -0.34178E-02 -0.40447E-02 -0.48088E-02 -0.55748E-02
 -0.62337E-02 -0.67126E-02 -0.69773E-02 -0.70320E-02 -0.69041E-02 -0.66193E-02
 -0.61956E-02 -0.56577E-02 -0.50455E-02 -0.43978E-02 -0.37330E-02 -0.30562E-02
 -0.23842E-02 -0.17552E-02 -0.12102E-02 -0.76862E-03 -0.42002E-03 -0.13295E-03
  0.13296E-03  0.42003E-03  0.76863E-03  0.12102E-02  0.17552E-02  0.23842E-02
  0.30562E-02  0.37330E-02  0.43978E-02  0.50455E-02  0.56577E-02  0.61956E-02
  0.66193E-02  0.69041E-02  0.70320E-02  0.69773E-02  0.67126E-02  0.62337E-02
  0.55748E-02  0.48088E-02  0.40447E-02 -0.18948E-02 -0.17357E-02 -0.20558E-02
 -0.28246E-02 -0.38840E-02 -0.50206E-02 -0.60349E-02 -0.67885E-02 -0.72261E-02
 -0.73664E-02 -0.72611E-02 -0.69556E-02 -0.64833E-02 -0.58851E-02 -0.52106E-02
 -0.44941E-02 -0.37444E-02 -0.29691E-02 -0.22043E-02 -0.15104E-02 -0.94122E-03
 -0.52145E-03 -0.24321E-03 -0.68289E-04  0.68298E-04  0.24322E-03  0.52146E-03
  0.94122E-03  0.15104E-02  0.22043E-02  0.29691E-02  0.37444E-02  0.44941E-02
  0.52106E-02  0.58851E-02  0.64833E-02  0.69555E-02  0.72611E-02  0.73664E-02
  0.72261E-02  0.67885E-02  0.60349E-02  0.50206E-02  0.38840E-02  0.28247E-02
 -0.38139E-03  0.14574E-03 -0.28237E-04 -0.92505E-03 -0.23488E-02 -0.39742E-02
 -0.54701E-02 -0.66036E-02 -0.72898E-02 -0.75655E-02 -0.75145E-02 -0.72085E-02
 -0.67032E-02 -0.60573E-02 -0.53252E-02 -0.45313E-02 -0.36779E-02 -0.27868E-02
 -0.19205E-02 -0.11557E-02 -0.55165E-03 -0.14798E-03  0.36941E-04  0.37118E-04
 -0.37107E-04 -0.36931E-04  0.14799E-03  0.55165E-03  0.11557E-02  0.19205E-02
  0.27868E-02  0.36779E-02  0.45313E-02  0.53252E-02  0.60573E-02  0.67032E-02
  0.72085E-02  0.75145E-02  0.75655E-02  0.72898E-02  0.66036E-02  0.54701E-02
  0.39742E-02  0.23488E-02  0.92511E-03  0.13047E-02  0.23797E-02  0.24832E-02
  0.15062E-02 -0.31502E-03 -0.25134E-02 -0.45890E-02 -0.61894E-02 -0.71893E-02
 -0.76438E-02 -0.76736E-02 -0.73845E-02 -0.68598E-02 -0.61760E-02 -0.53874E-02
 -0.45080E-02 -0.35417E-02 -0.25308E-02 -0.15547E-02 -0.68713E-03  0.74488E-05
  0.43686E-03  0.50281E-03  0.21743E-03 -0.21742E-03 -0.50280E-03 -0.43685E-03
 -0.74414E-05  0.68713E-03  0.15547E-02  0.25308E-02  0.35417E-02  0.45080E-02
  0.53874E-02  0.61760E-02  0.68598E-02  0.73845E-02  0.76736E-02  0.76438E-02
  0.71893E-02  0.61894E-02  0.45890E-02  0.25135E-02  0.31508E-03 -0.15062E-02
  0.29180E-02  0.46928E-02  0.51931E-02  0.41959E-02  0.19805E-02 -0.82303E-03
 -0.35234E-02 -0.56331E-02 -0.69791E-02 -0.76331E-02 -0.77567E-02 -0.74950E-02
 -0.69616E-02 -0.62476E-02 -0.54036E-02 -0.44374E-02 -0.33620E-02 -0.22357E-02
 -0.11297E-02 -0.90806E-04  0.79708E-03  0.13235E-02  0.12352E-02  0.50492E-03
 -0.50490E-03 -0.12352E-02 -0.13235E-02 -0.79707E-03  0.90812E-04  0.11297E-02
  0.22357E-02  0.33620E-02  0.44374E-02  0.54036E-02  0.62476E-02  0.69616E-02
  0.74950E-02  0.77567E-02  0.76331E-02  0.69791E-02  0.56331E-02  0.35235E-02
  0.82307E-03 -0.19804E-02 -0.41957E-02  0.42675E-02  0.67943E-02  0.77430E-02
  0.67712E-02  0.42028E-02  0.83241E-03 -0.24591E-02 -0.50517E-02 -0.67252E-02
 -0.75677E-02 -0.77818E-02 -0.75527E-02 -0.70211E-02 -0.62860E-02 -0.53926E-02
 -0.43473E-02 -0.31762E-02 -0.19415E-02 -0.67962E-03  0.60587E-03  0.17882E-02
  0.24760E-02  0.21999E-02  0.88513E-03 -0.88511E-03 -0.21999E-02 -0.24760E-02
 -0.17882E-02 -0.60587E-03  0.67963E-03  0.19415E-02  0.31762E-02  0.43473E-02
  0.53926E-02  0.62860E-02  0.70211E-02  0.75527E-02  0.77818E-02  0.75677E-02
  0.67252E-02  0.50517E-02  0.24592E-02 -0.83237E-03 -0.42028E-02 -0.67711E-02
  0.52293E-02  0.84021E-02  0.97444E-02  0.88143E-02  0.59754E-02  0.21598E-02
 -0.15968E-02 -0.45676E-02 -0.64960E-02 -0.74844E-02 -0.77709E-02 -0.75734E-02
 -0.70515E-02 -0.63060E-02 -0.53756E-02 -0.42688E-02 -0.30236E-02 -0.16964E-02
 -0.27797E-03  0.12711E-02  0.27685E-02  0.36301E-02  0.31685E-02  0.12669E-02
 -0.12669E-02 -0.31685E-02 -0.36301E-02 -0.27685E-02 -0.12711E-02  0.27798E-03
  0.16964E-02  0.30236E-02  0.42688E-02  0.53756E-02  0.63060E-02  0.70515E-02
  0.75734E-02  0.77709E-02  0.74844E-02  0.64960E-02  0.45676E-02  0.15968E-02
 -0.21597E-02 -0.59754E-02 -0.88142E-02  0.57289E-02  0.92773E-02  0.10850E-01
  0.99493E-02  0.69625E-02  0.29007E-02 -0.11125E-02 -0.42910E-02 -0.63583E-02
 -0.74263E-02 -0.77534E-02 -0.75764E-02 -0.70638E-02 -0.63154E-02 -0.53654E-02
 -0.42244E-02 -0.29377E-02 -0.15545E-02 -0.33966E-04  0.16894E-02  0.33937E-02
  0.43683E-02  0.37879E-02  0.15108E-02 -0.15108E-02 -0.37879E-02 -0.43683E-02
 -0.33936E-02 -0.16894E-02  0.33968E-04  0.15545E-02  0.29377E-02  0.42244E-02
  0.53654E-02  0.63154E-02  0.70638E-02  0.75764E-02  0.77534E-02  0.74263E-02
  0.63583E-02  0.42910E-02  0.11125E-02 -0.29007E-02 -0.69625E-02 -0.99493E-02
  0.57288E-02  0.92772E-02  0.10850E-01  0.99493E-02  0.69625E-02  0.29007E-02
 -0.11125E-02 -0.42910E-02 -0.63583E-02 -0.74263E-02 -0.77534E-02 -0.75764E-02
 -0.70638E-02 -0.63154E-02 -0.53654E-02 -0.42244E-02 -0.29377E-02 -0.15545E-02
 -0.33965E-04  0.16894E-02  0.33937E-02  0.43683E-02  0.37879E-02  0.15108E-02
 -0.15108E-02 -0.37879E-02 -0.43683E-02 -0.33937E-02 -0.16894E-02  0.33966E-04
  0.15545E-02  0.29377E-02  0.42244E-02  0.53654E-02  0.63154E-02  0.70638E-02
  0.75764E-02  0.77534E-02  0.74263E-02  0.63583E-02  0.42910E-02  0.11125E-02
 -0.29007E-02 -0.69625E-02 -0.99493E-02  0.52291E-02  0.84019E-02  0.97443E-02
  0.88142E-02  0.59754E-02  0.21597E-02 -0.15968E-02 -0.45676E-02 -0.64960E-02
 -0.74844E-02 -0.77708E-02 -0.75734E-02 -0.70515E-02 -0.63060E-02 -0.53756E-02
 -0.42688E-02 -0.30236E-02 -0.16964E-02 -0.27797E-03  0.12711E-02  0.27685E-02
  0.36301E-02  0.31685E-02  0.12669E-02 -0.12669E-02 -0.31686E-02 -0.36301E-02
 -0.27685E-02 -0.12711E-02  0.27797E-03  0.16964E-02  0.30236E-02  0.42688E-02
  0.53756E-02  0.63060E-02  0.70515E-02  0.75734E-02  0.77709E-02  0.74844E-02
  0.64960E-02  0.45676E-02  0.15968E-02 -0.21598E-02 -0.59754E-02 -0.88143E-02
  0.42673E-02  0.67940E-02  0.77428E-02  0.67710E-02  0.42027E-02  0.83237E-03
 -0.24591E-02 -0.50517E-02 -0.67252E-02 -0.75677E-02 -0.77818E-02 -0.75527E-02
 -0.70210E-02 -0.62860E-02 -0.53926E-02 -0.43473E-02 -0.31762E-02 -0.19415E-02
 -0.67962E-03  0.60588E-03  0.17882E-02  0.24760E-02  0.21999E-02  0.88511E-03
 -0.88513E-03 -0.21999E-02 -0.24760E-02 -0.17882E-02 -0.60588E-03  0.67962E-03
  0.19415E-02  0.31762E-02  0.43473E-02  0.53926E-02  0.62860E-02  0.70210E-02
  0.75527E-02  0.77818E-02  0.75677E-02  0.67252E-02  0.50517E-02  0.24591E-02
 -0.83242E-03 -0.42028E-02 -0.67712E-02  0.29177E-02  0.46926E-02  0.51929E-02
  0.41957E-02  0.19804E-02 -0.82306E-03 -0.35234E-02 -0.56331E-02 -0.69791E-02
 -0.76331E-02 -0.77567E-02 -0.74950E-02 -0.69616E-02 -0.62475E-02 -0.54036E-02
 -0.44374E-02 -0.33620E-02 -0.22357E-02 -0.11297E-02 -0.90803E-04  0.79708E-03
  0.13235E-02  0.12352E-02  0.50490E-03 -0.50492E-03 -0.12352E-02 -0.13235E-02
 -0.79708E-03  0.90801E-04  0.11297E-02  0.22357E-02  0.33620E-02  0.44374E-02
  0.54036E-02  0.62476E-02  0.69616E-02  0.74950E-02  0.77567E-02  0.76331E-02
  0.69791E-02  0.56331E-02  0.35234E-02  0.82302E-03 -0.19805E-02 -0.41958E-02
  0.13045E-02  0.23795E-02  0.24831E-02  0.15061E-02 -0.31508E-03 -0.25135E-02
 -0.45890E-02 -0.61894E-02 -0.71893E-02 -0.76437E-02 -0.76736E-02 -0.73845E-02
 -0.68598E-02 -0.61760E-02 -0.53874E-02 -0.45080E-02 -0.35417E-02 -0.25308E-02
 -0.15546E-02 -0.68712E-03  0.74492E-05  0.43686E-03  0.50280E-03  0.21742E-03
 -0.21743E-03 -0.50281E-03 -0.43687E-03 -0.74543E-05  0.68712E-03  0.15546E-02
  0.25308E-02  0.35417E-02  0.45080E-02  0.53874E-02  0.61760E-02  0.68598E-02
  0.73845E-02  0.76736E-02  0.76438E-02  0.71893E-02  0.61894E-02  0.45890E-02
  0.25134E-02  0.31502E-03 -0.15062E-02 -0.38151E-03  0.14562E-03 -0.28330E-04
 -0.92511E-03 -0.23488E-02 -0.39742E-02 -0.54701E-02 -0.66036E-02 -0.72898E-02
 -0.75654E-02 -0.75144E-02 -0.72085E-02 -0.67031E-02 -0.60573E-02 -0.53252E-02
 -0.45313E-02 -0.36779E-02 -0.27868E-02 -0.19205E-02 -0.11557E-02 -0.55164E-03
 -0.14798E-03  0.36935E-04  0.37109E-04 -0.37118E-04 -0.36943E-04  0.14798E-03
  0.55164E-03  0.11557E-02  0.19205E-02  0.27868E-02  0.36779E-02  0.45313E-02
  0.53252E-02  0.60573E-02  0.67031E-02  0.72085E-02  0.75144E-02  0.75655E-02
  0.72898E-02  0.66036E-02  0.54701E-02  0.39742E-02  0.23487E-02  0.92505E-03
 -0.18948E-02 -0.17358E-02 -0.20559E-02 -0.28247E-02 -0.38840E-02 -0.50205E-02
 -0.60349E-02 -0.67885E-02 -0.72261E-02 -0.73663E-02 -0.72611E-02 -0.69555E-02
 -0.64832E-02 -0.58851E-02 -0.52106E-02 -0.44941E-02 -0.37444E-02 -0.29691E-02
 -0.22043E-02 -0.15104E-02 -0.94122E-03 -0.52145E-03 -0.24321E-03 -0.68296E-04
  0.68289E-04  0.24321E-03  0.52144E-03  0.94121E-03  0.15104E-02  0.22043E-02
  0.29691E-02  0.37444E-02  0.44941E-02  0.52106E-02  0.58851E-02  0.64833E-02
  0.69555E-02  0.72611E-02  0.73663E-02  0.72261E-02  0.67885E-02  0.60349E-02
  0.50205E-02  0.38840E-02  0.28246E-02 -0.29982E-02 -0.30520E-02 -0.34178E-02
 -0.40447E-02 -0.48088E-02 -0.55747E-02 -0.62337E-02 -0.67126E-02 -0.69773E-02
 -0.70320E-02 -0.69040E-02 -0.66193E-02 -0.61956E-02 -0.56577E-02 -0.50455E-02
 -0.43977E-02 -0.37330E-02 -0.30562E-02 -0.23842E-02 -0.17551E-02 -0.12102E-02
 -0.76862E-03 -0.42003E-03 -0.13295E-03  0.13295E-03  0.42002E-03  0.76862E-03
  0.12102E-02  0.17551E-02  0.23842E-02  0.30562E-02  0.37330E-02  0.43978E-02
  0.50455E-02  0.56577E-02  0.61956E-02  0.66193E-02  0.69040E-02  0.70320E-02
  0.69773E-02  0.67126E-02  0.62337E-02  0.55747E-02  0.48088E-02  0.40447E-02
 -0.35489E-02 -0.37054E-02 -0.40612E-02 -0.45672E-02 -0.51281E-02 -0.56552E-02
 -0.60904E-02 -0.63989E-02 -0.65613E-02 -0.65748E-02 -0.64509E-02 -0.62028E-02
 -0.58388E-02 -0.53716E-02 -0.48292E-02 -0.42470E-02 -0.36504E-02 -0.30498E-02
 -0.24551E-02 -0.18875E-02 -0.13723E-02 -0.92230E-03 -0.52947E-03 -0.17257E-03
  0.17256E-03  0.52947E-03  0.92230E-03  0.13723E-02  0.18875E-02  0.24551E-02
  0.30498E-02  0.36504E-02  0.42470E-02  0.48292E-02  0.53716E-02  0.58388E-02
  0.62028E-02  0.64509E-02  0.65748E-02  0.65614E-02  0.63989E-02  0.60904E-02
  0.56552E-02  0.51281E-02  0.45672E-02 -0.35487E-02 -0.37403E-02 -0.40640E-02
 -0.44849E-02 -0.49309E-02 -0.53365E-02 -0.56628E-02 -0.58909E-02 -0.60107E-02
 -0.60188E-02 -0.59189E-02 -0.57168E-02 -0.54158E-02 -0.50225E-02 -0.45552E-02
 -0.40418E-02 -0.35074E-02 -0.29681E-02 -0.24344E-02 -0.19190E-02 -0.14354E-02
 -0.99021E-03 -0.57937E-03 -0.19065E-03  0.19065E-03  0.57936E-03  0.99020E-03
  0.14354E-02  0.19190E-02  0.24344E-02  0.29681E-02  0.35074E-02  0.40418E-02
  0.45552E-02  0.50225E-02  0.54158E-02  0.57168E-02  0.59189E-02  0.60188E-02
  0.60107E-02  0.58909E-02  0.56628E-02  0.53365E-02  0.49309E-02  0.44849E-02
 -0.31107E-02 -0.33001E-02 -0.35860E-02 -0.39513E-02 -0.43443E-02 -0.47093E-02
 -0.50080E-02 -0.52223E-02 -0.53460E-02 -0.53783E-02 -0.53203E-02 -0.51723E-02
 -0.49346E-02 -0.46127E-02 -0.42207E-02 -0.37790E-02 -0.33087E-02 -0.28263E-02
 -0.23439E-02 -0.18711E-02 -0.14161E-02 -0.98445E-03 -0.57753E-03 -0.19003E-03
  0.19002E-03  0.57752E-03  0.98444E-03  0.14161E-02  0.18711E-02  0.23439E-02
  0.28263E-02  0.33087E-02  0.37790E-02  0.42207E-02  0.46128E-02  0.49346E-02
  0.51723E-02  0.53203E-02  0.53783E-02  0.53460E-02  0.52223E-02  0.50080E-02
  0.47093E-02  0.43444E-02  0.39513E-02 -0.23582E-02 -0.25263E-02 -0.27751E-02
 -0.31049E-02 -0.34808E-02 -0.38517E-02 -0.41723E-02 -0.44168E-02 -0.45782E-02
 -0.46589E-02 -0.46597E-02 -0.45766E-02 -0.44067E-02 -0.41547E-02 -0.38338E-02
 -0.34613E-02 -0.30541E-02 -0.26264E-02 -0.21904E-02 -0.17554E-02 -0.13292E-02
 -0.92032E-03 -0.53610E-03 -0.17540E-03  0.17539E-03  0.53609E-03  0.92031E-03
  0.13292E-02  0.17554E-02  0.21904E-02  0.26264E-02  0.30541E-02  0.34613E-02
  0.38338E-02  0.41547E-02  0.44067E-02  0.45766E-02  0.46597E-02  0.46589E-02
  0.45782E-02  0.44168E-02  0.41723E-02  0.38517E-02  0.34808E-02  0.31049E-02
 -0.13451E-02 -0.14801E-02 -0.16982E-02 -0.20113E-02 -0.23975E-02 -0.28079E-02
 -0.31876E-02 -0.34977E-02 -0.37249E-02 -0.38725E-02 -0.39444E-02 -0.39364E-02
 -0.38420E-02 -0.36625E-02 -0.34093E-02 -0.30987E-02 -0.27463E-02 -0.23659E-02
 -0.19701E-02 -0.15698E-02 -0.11759E-02 -0.80197E-03 -0.45969E-03 -0.14878E-03
  0.14877E-03  0.45967E-03  0.80196E-03  0.11759E-02  0.15698E-02  0.19701E-02
  0.23659E-02  0.27463E-02  0.30987E-02  0.34093E-02  0.36625E-02  0.38420E-02
  0.39364E-02  0.39444E-02  0.38725E-02  0.37249E-02  0.34977E-02  0.31876E-02
  0.28079E-02  0.23975E-02  0.20113E-02 -0.73620E-04 -0.16418E-03 -0.36078E-03
 -0.67932E-03 -0.11047E-02 -0.15886E-02 -0.20664E-02 -0.24821E-02 -0.28075E-02
 -0.30411E-02 -0.31919E-02 -0.32625E-02 -0.32479E-02 -0.31446E-02 -0.29581E-02
 -0.27025E-02 -0.23945E-02 -0.20495E-02 -0.16816E-02 -0.13057E-02 -0.94104E-03
 -0.61100E-03 -0.33306E-03 -0.10424E-03  0.10422E-03  0.33304E-03  0.61098E-03
  0.94102E-03  0.13057E-02  0.16816E-02  0.20495E-02  0.23945E-02  0.27025E-02
  0.29581E-02  0.31446E-02  0.32479E-02  0.32625E-02  0.31919E-02  0.30411E-02
  0.28075E-02  0.24821E-02  0.20664E-02  0.15886E-02  0.11047E-02  0.67931E-03
  0.14380E-02  0.14085E-02  0.12252E-02  0.87698E-03  0.38270E-03 -0.20606E-03
 -0.81694E-03 -0.13778E-02 -0.18389E-02 -0.21842E-02 -0.24236E-02 -0.25722E-02
 -0.26347E-02 -0.26061E-02 -0.24846E-02 -0.22795E-02 -0.20070E-02 -0.16827E-02
 -0.13200E-02 -0.94040E-03 -0.58245E-03 -0.29495E-03 -0.11180E-03 -0.24303E-04
  0.24275E-04  0.11177E-03  0.29492E-03  0.58243E-03  0.94038E-03  0.13199E-02
  0.16826E-02  0.20070E-02  0.22795E-02  0.24846E-02  0.26061E-02  0.26346E-02
  0.25722E-02  0.24236E-02  0.21842E-02  0.18389E-02  0.13778E-02  0.81692E-03
  0.20604E-03 -0.38272E-03 -0.87700E-03  0.31612E-02  0.32260E-02  0.30488E-02
  0.26326E-02  0.20236E-02  0.12939E-02  0.52445E-03 -0.20570E-03 -0.83065E-03
 -0.13143E-02 -0.16584E-02 -0.18873E-02 -0.20202E-02 -0.20581E-02 -0.19948E-02
 -0.18331E-02 -0.15845E-02 -0.12571E-02 -0.85849E-03 -0.42102E-03 -0.22100E-04
  0.23394E-03  0.27467E-03  0.11821E-03 -0.11825E-03 -0.27471E-03 -0.23397E-03
  0.22071E-04  0.42100E-03  0.85847E-03  0.12571E-02  0.15845E-02  0.18331E-02
  0.19948E-02  0.20581E-02  0.20202E-02  0.18873E-02  0.16584E-02  0.13143E-02
  0.83064E-03  0.20568E-03 -0.52447E-03 -0.12939E-02 -0.20236E-02 -0.26327E-02
  0.51148E-02  0.53407E-02  0.51646E-02  0.46110E-02  0.37928E-02  0.28471E-02
  0.18827E-02  0.97410E-03  0.18055E-03 -0.45331E-03 -0.91586E-03 -0.12305E-02
 -0.14281E-02 -0.15206E-02 -0.15030E-02 -0.13718E-02 -0.11259E-02 -0.75626E-03
 -0.25936E-03  0.31281E-03  0.81608E-03  0.10524E-02  0.88412E-03  0.34484E-03
 -0.34490E-03 -0.88418E-03 -0.10525E-02 -0.81612E-03 -0.31284E-03  0.25934E-03
  0.75624E-03  0.11259E-02  0.13718E-02  0.15030E-02  0.15206E-02  0.14281E-02
  0.12305E-02  0.91585E-03  0.45330E-03 -0.18057E-03 -0.97413E-03 -0.18828E-02
 -0.28472E-02 -0.37928E-02 -0.46110E-02  0.72514E-02  0.77401E-02  0.75864E-02
  0.68254E-02  0.56730E-02  0.43924E-02  0.31655E-02  0.20671E-02  0.11218E-02
  0.35302E-03 -0.22410E-03 -0.62415E-03 -0.88097E-03 -0.10169E-02 -0.10322E-02
 -0.91585E-03 -0.64725E-03 -0.19171E-03  0.46592E-03  0.12415E-02  0.18992E-02
  0.21189E-02  0.16805E-02  0.64124E-03 -0.64133E-03 -0.16806E-02 -0.21189E-02
 -0.18992E-02 -0.12415E-02 -0.46595E-03  0.19169E-03  0.64723E-03  0.91584E-03
  0.10321E-02  0.10168E-02  0.88095E-03  0.62414E-03  0.22408E-03 -0.35304E-03
 -0.11219E-02 -0.20671E-02 -0.31656E-02 -0.43924E-02 -0.56731E-02 -0.68255E-02
  0.90983E-02  0.99427E-02  0.99066E-02  0.89858E-02  0.74793E-02  0.58034E-02
  0.42643E-02  0.29695E-02  0.19035E-02  0.10406E-02  0.37818E-03 -0.91702E-04
 -0.39799E-03 -0.56869E-03 -0.60934E-03 -0.50079E-03 -0.19933E-03  0.35590E-03
  0.11866E-02  0.21695E-02  0.29759E-02  0.31705E-02  0.24606E-02  0.93055E-03
 -0.93067E-03 -0.24607E-02 -0.31706E-02 -0.29759E-02 -0.21696E-02 -0.11867E-02
 -0.35592E-03  0.19931E-03  0.50077E-03  0.60932E-03  0.56867E-03  0.39797E-03
  0.91685E-04 -0.37820E-03 -0.10406E-02 -0.19036E-02 -0.29695E-02 -0.42644E-02
 -0.58034E-02 -0.74794E-02 -0.89859E-02  0.95567E-02  0.10758E-01  0.11037E-01
  0.10253E-01  0.86666E-02  0.67751E-02  0.50160E-02  0.35792E-02  0.24470E-02
  0.15485E-02  0.85003E-03  0.34174E-03  0.23539E-05 -0.19612E-03 -0.26246E-03
 -0.17172E-03  0.13629E-03  0.73792E-03  0.16533E-02  0.27310E-02  0.35915E-02
  0.37464E-02  0.28756E-02  0.10823E-02 -0.10824E-02 -0.28758E-02 -0.37465E-02
 -0.35915E-02 -0.27310E-02 -0.16534E-02 -0.73794E-03 -0.13631E-03  0.17170E-03
  0.26244E-03  0.19610E-03 -0.23710E-05 -0.34176E-03 -0.85005E-03 -0.15485E-02
 -0.24470E-02 -0.35792E-02 -0.50161E-02 -0.67752E-02 -0.86667E-02 -0.10253E-01
  0.74150E-02  0.88238E-02  0.96591E-02  0.95419E-02  0.84804E-02  0.68700E-02
  0.52082E-02  0.38012E-02  0.27008E-02  0.18386E-02  0.11616E-02  0.65451E-03
  0.30323E-03  0.84089E-04 -0.13704E-04  0.32733E-04  0.28211E-03  0.80441E-03
  0.16111E-02  0.25560E-02  0.32949E-02  0.33975E-02  0.25902E-02  0.97175E-03
 -0.97186E-03 -0.25903E-02 -0.33975E-02 -0.32949E-02 -0.25561E-02 -0.16111E-02
 -0.80443E-03 -0.28213E-03 -0.32751E-04  0.13686E-04 -0.84107E-04 -0.30325E-03
 -0.65453E-03 -0.11616E-02 -0.18386E-02 -0.27008E-02 -0.38013E-02 -0.52082E-02
 -0.68700E-02 -0.84805E-02 -0.95420E-02 -0.44163E-02 -0.34443E-02 -0.12645E-02
  0.11821E-02  0.29374E-02  0.36118E-02  0.34352E-02  0.28745E-02  0.22641E-02
  0.17214E-02  0.12571E-02  0.87229E-03  0.57067E-03  0.34456E-03  0.17982E-03
  0.67101E-04  0.10016E-05 -0.26780E-04 -0.30408E-04 -0.27661E-04 -0.31824E-04
 -0.41163E-04 -0.39934E-04 -0.17113E-04  0.17043E-04  0.39870E-04  0.41111E-04
  0.31788E-04  0.27642E-04  0.30406E-04  0.26790E-04 -0.98302E-06 -0.67078E-04
 -0.17980E-03 -0.34454E-03 -0.57065E-03 -0.87228E-03 -0.12571E-02 -0.17214E-02
 -0.22641E-02 -0.28746E-02 -0.34353E-02 -0.36118E-02 -0.29374E-02 -0.11822E-02
  0.14120E-02  0.28724E-02  0.47103E-02  0.61139E-02  0.65120E-02  0.59249E-02
  0.48134E-02  0.36573E-02  0.26867E-02  0.19147E-02  0.12979E-02  0.81936E-03
  0.47312E-03  0.24246E-03  0.11368E-03  0.99550E-04  0.24267E-03  0.59088E-03
  0.11433E-02  0.17861E-02  0.22758E-02  0.23243E-02  0.17596E-02  0.65765E-03
 -0.65774E-03 -0.17597E-02 -0.23243E-02 -0.22758E-02 -0.17861E-02 -0.11433E-02
 -0.59087E-03 -0.24265E-03 -0.99527E-04 -0.11366E-03 -0.24244E-03 -0.47310E-03
 -0.81935E-03 -0.12979E-02 -0.19147E-02 -0.26867E-02 -0.36573E-02 -0.48134E-02
 -0.59249E-02 -0.65120E-02 -0.61139E-02  0.76126E-02  0.93715E-02  0.10571E-01
  0.10664E-01  0.95716E-02  0.77384E-02  0.57922E-02  0.41493E-02  0.28960E-02
  0.19425E-02  0.12065E-02  0.66049E-03  0.28844E-03  0.63604E-04 -0.26163E-04
  0.53108E-04  0.38613E-03  0.10698E-02  0.21168E-02  0.33322E-02  0.42711E-02
  0.43867E-02  0.33363E-02  0.12502E-02 -0.12503E-02 -0.33364E-02 -0.43868E-02
 -0.42712E-02 -0.33322E-02 -0.21168E-02 -0.10698E-02 -0.38611E-03 -0.53082E-04
  0.26191E-04 -0.63577E-04 -0.28841E-03 -0.66047E-03 -0.12065E-02 -0.19425E-02
 -0.28960E-02 -0.41493E-02 -0.57921E-02 -0.77384E-02 -0.95716E-02 -0.10664E-01
  0.11742E-01  0.13473E-01  0.13998E-01  0.13056E-01  0.10959E-01  0.84041E-02
  0.60454E-02  0.41858E-02  0.27979E-02  0.17460E-02  0.94634E-03  0.37164E-03
 -0.41776E-05 -0.21612E-03 -0.27383E-03 -0.13153E-03  0.31505E-03  0.11876E-02
  0.25109E-02  0.40538E-02  0.52653E-02  0.54518E-02  0.41669E-02  0.15653E-02
 -0.15653E-02 -0.41670E-02 -0.54518E-02 -0.52653E-02 -0.40538E-02 -0.25109E-02
 -0.11876E-02 -0.31502E-03  0.13156E-03  0.27386E-03  0.21615E-03  0.42054E-05
 -0.37162E-03 -0.94632E-03 -0.17460E-02 -0.27979E-02 -0.41857E-02 -0.60454E-02