       #
       # Generated by the Wannier90 code http://www.wannier.org
       # On 29Dec2023 at 23:55:10 
       #
CRYSTAL
PRIMVEC
   4.1863376   0.0000000   0.0000000
   0.0000000   4.1863376   0.0000000
   0.0000000   0.0000000   4.1863376
CONVVEC
   4.1863376   0.0000000   0.0000000
   0.0000000   4.1863376   0.0000000
   0.0000000   0.0000000   4.1863376
PRIMCOORD
     8  1
O       0.0000000   0.0000000   0.0000000
O       0.0000000   2.0931688   2.0931688
O       2.0931688   0.0000000   2.0931688
O       2.0931688   2.0931688   0.0000000
Ni      0.0000000   0.0000000   2.0931688
Ni      2.0931688   0.0000000   0.0000000
Ni      0.0000000   2.0931688   0.0000000
Ni      2.0931688   2.0931688   2.0931688


BEGIN_BLOCK_DATAGRID_3D
3D_field
BEGIN_DATAGRID_3D_UNKNOWN
    45    45    45
   -0.093030   -0.093030   -0.093030
   4.0933079   0.0000000   0.0000000
   0.0000000   4.0933079   0.0000000
   0.0000000   0.0000000   4.0933079
 -0.91639E-02 -0.44162E-02  0.14773E-02  0.62330E-02  0.84346E-02  0.82005E-02
  0.66086E-02  0.46828E-02  0.28897E-02  0.12947E-02 -0.11209E-03 -0.13044E-02
 -0.22640E-02 -0.29838E-02 -0.34066E-02 -0.34095E-02 -0.28836E-02 -0.18365E-02
 -0.42832E-03  0.10867E-02  0.24634E-02  0.35436E-02  0.42655E-02  0.46229E-02
  0.46229E-02  0.42655E-02  0.35437E-02  0.24634E-02  0.10867E-02 -0.42831E-03
 -0.18366E-02 -0.28836E-02 -0.34095E-02 -0.34066E-02 -0.29838E-02 -0.22640E-02
 -0.13044E-02 -0.11211E-03  0.12947E-02  0.28897E-02  0.46828E-02  0.66086E-02
  0.82005E-02  0.84346E-02  0.62330E-02 -0.38904E-02  0.14119E-02  0.70978E-02
  0.10914E-01  0.11768E-01  0.10193E-01  0.75476E-02  0.49178E-02  0.26873E-02
  0.81070E-03 -0.79564E-03 -0.21393E-02 -0.32157E-02 -0.40197E-02 -0.44799E-02
 -0.44330E-02 -0.36853E-02 -0.21073E-02  0.30361E-03  0.33970E-02  0.68619E-02
  0.10235E-01  0.12953E-01  0.14479E-01  0.14479E-01  0.12953E-01  0.10235E-01
  0.68619E-02  0.33971E-02  0.30363E-03 -0.21073E-02 -0.36853E-02 -0.44330E-02
 -0.44800E-02 -0.40197E-02 -0.32157E-02 -0.21393E-02 -0.79566E-03  0.81068E-03
  0.26873E-02  0.49178E-02  0.75476E-02  0.10193E-01  0.11768E-01  0.10914E-01
  0.24515E-02  0.76122E-02  0.12266E-01  0.14535E-01  0.13844E-01  0.11084E-01
  0.76924E-02  0.46370E-02  0.21493E-02  0.89528E-04 -0.16637E-02 -0.31320E-02
 -0.43173E-02 -0.52121E-02 -0.57333E-02 -0.56875E-02 -0.48099E-02 -0.28357E-02
  0.41223E-03  0.49089E-02  0.10299E-01  0.15830E-01  0.20449E-01  0.23096E-01
  0.23096E-01  0.20449E-01  0.15830E-01  0.10299E-01  0.49089E-02  0.41226E-03
 -0.28357E-02 -0.48099E-02 -0.56875E-02 -0.57333E-02 -0.52122E-02 -0.43173E-02
 -0.31321E-02 -0.16637E-02  0.89517E-04  0.21493E-02  0.46371E-02  0.76924E-02
  0.11084E-01  0.13844E-01  0.14535E-01  0.74147E-02  0.11742E-01  0.14915E-01
  0.15629E-01  0.13799E-01  0.10460E-01  0.68800E-02  0.37778E-02  0.12382E-02
 -0.90195E-03 -0.27429E-02 -0.42965E-02 -0.55644E-02 -0.65363E-02 -0.71253E-02
 -0.71349E-02 -0.62716E-02 -0.41869E-02 -0.57078E-03  0.46677E-02  0.11177E-01
  0.18033E-01  0.23858E-01  0.27226E-01  0.27226E-01  0.23858E-01  0.18033E-01
  0.11177E-01  0.46678E-02 -0.57075E-03 -0.41869E-02 -0.62716E-02 -0.71349E-02
 -0.71254E-02 -0.65363E-02 -0.55644E-02 -0.42965E-02 -0.27429E-02 -0.90196E-03
  0.12382E-02  0.37778E-02  0.68800E-02  0.10460E-01  0.13799E-01  0.15629E-01
  0.95563E-02  0.12646E-01  0.14381E-01  0.14016E-01  0.11762E-01  0.85394E-02
  0.52770E-02  0.24189E-02 -0.23825E-04 -0.21567E-02 -0.40172E-02 -0.55984E-02
 -0.69035E-02 -0.79208E-02 -0.85703E-02 -0.86807E-02 -0.79838E-02 -0.61227E-02
 -0.27336E-02  0.23510E-02  0.88354E-02  0.15793E-01  0.21777E-01  0.25262E-01
  0.25262E-01  0.21777E-01  0.15793E-01  0.88355E-02  0.23511E-02 -0.27336E-02
 -0.61227E-02 -0.79839E-02 -0.86808E-02 -0.85703E-02 -0.79208E-02 -0.69036E-02
 -0.55985E-02 -0.40172E-02 -0.21567E-02 -0.23821E-04  0.24189E-02  0.52771E-02
  0.85395E-02  0.11762E-01  0.14016E-01  0.90980E-02  0.10937E-01  0.11597E-01
  0.10740E-01  0.86428E-02  0.59518E-02  0.32287E-02  0.71694E-03 -0.15615E-02
 -0.36148E-02 -0.54197E-02 -0.69633E-02 -0.82547E-02 -0.92821E-02 -0.99784E-02
 -0.10216E-01 -0.97888E-02 -0.83983E-02 -0.57094E-02 -0.15351E-02  0.39124E-02
  0.98531E-02  0.15019E-01  0.18048E-01  0.18048E-01  0.15019E-01  0.98531E-02
  0.39124E-02 -0.15351E-02 -0.57094E-02 -0.83983E-02 -0.97888E-02 -0.10216E-01
 -0.99784E-02 -0.92821E-02 -0.82547E-02 -0.69633E-02 -0.54197E-02 -0.36148E-02
 -0.15615E-02  0.71696E-03  0.32288E-02  0.59519E-02  0.86429E-02  0.10740E-01
  0.72511E-02  0.80973E-02  0.80988E-02  0.71343E-02  0.54062E-02  0.32745E-02
  0.10318E-02 -0.11731E-02 -0.32648E-02 -0.51754E-02 -0.68576E-02 -0.83103E-02
 -0.95486E-02 -0.10558E-01 -0.11285E-01 -0.11647E-01 -0.11511E-01 -0.10667E-01
 -0.88623E-02 -0.59450E-02 -0.20501E-02  0.22632E-02  0.60548E-02  0.82929E-02
  0.82929E-02  0.60549E-02  0.22632E-02 -0.20500E-02 -0.59449E-02 -0.88623E-02
 -0.10667E-01 -0.11512E-01 -0.11647E-01 -0.11285E-01 -0.10558E-01 -0.95486E-02
 -0.83103E-02 -0.68576E-02 -0.51754E-02 -0.32648E-02 -0.11731E-02  0.10318E-02
  0.32746E-02  0.54063E-02  0.71344E-02  0.51146E-02  0.52949E-02  0.49294E-02
  0.39761E-02  0.25346E-02  0.77205E-03 -0.11554E-02 -0.31203E-02 -0.50077E-02
 -0.67281E-02 -0.82483E-02 -0.95832E-02 -0.10746E-01 -0.11716E-01 -0.12454E-01
 -0.12911E-01 -0.13013E-01 -0.12630E-01 -0.11609E-01 -0.98609E-02 -0.74720E-02
 -0.47902E-02 -0.24087E-02 -0.99336E-03 -0.99336E-03 -0.24087E-02 -0.47902E-02
 -0.74720E-02 -0.98609E-02 -0.11609E-01 -0.12630E-01 -0.13013E-01 -0.12911E-01
 -0.12454E-01 -0.11717E-01 -0.10746E-01 -0.95832E-02 -0.82484E-02 -0.67282E-02
 -0.50077E-02 -0.31203E-02 -0.11554E-02  0.77209E-03  0.25346E-02  0.39762E-02
  0.31611E-02  0.29285E-02  0.23417E-02  0.13738E-02  0.58846E-04 -0.15198E-02
 -0.32498E-02 -0.50059E-02 -0.66749E-02 -0.81903E-02 -0.95447E-02 -0.10758E-01
 -0.11833E-01 -0.12744E-01 -0.13463E-01 -0.13968E-01 -0.14216E-01 -0.14134E-01
 -0.13646E-01 -0.12725E-01 -0.11439E-01 -0.99841E-02 -0.86825E-02 -0.79043E-02
 -0.79043E-02 -0.86825E-02 -0.99841E-02 -0.11439E-01 -0.12725E-01 -0.13646E-01
 -0.14134E-01 -0.14216E-01 -0.13968E-01 -0.13463E-01 -0.12744E-01 -0.11833E-01
 -0.10758E-01 -0.95448E-02 -0.81903E-02 -0.66749E-02 -0.50059E-02 -0.32498E-02
 -0.15198E-02  0.58886E-04  0.13738E-02  0.14379E-02  0.94053E-03  0.19357E-03
 -0.83020E-03 -0.21166E-02 -0.35997E-02 -0.51761E-02 -0.67359E-02 -0.81972E-02
 -0.95281E-02 -0.10736E-01 -0.11831E-01 -0.12803E-01 -0.13631E-01 -0.14299E-01
 -0.14796E-01 -0.15094E-01 -0.15152E-01 -0.14942E-01 -0.14479E-01 -0.13825E-01
 -0.13088E-01 -0.12431E-01 -0.12038E-01 -0.12038E-01 -0.12431E-01 -0.13088E-01
 -0.13825E-01 -0.14479E-01 -0.14942E-01 -0.15152E-01 -0.15094E-01 -0.14796E-01
 -0.14299E-01 -0.13631E-01 -0.12804E-01 -0.11831E-01 -0.10736E-01 -0.95282E-02
 -0.81973E-02 -0.67359E-02 -0.51761E-02 -0.35997E-02 -0.21166E-02 -0.83017E-03
 -0.73653E-04 -0.75776E-03 -0.16349E-02 -0.27287E-02 -0.40184E-02 -0.54333E-02
 -0.68782E-02 -0.82703E-02 -0.95630E-02 -0.10746E-01 -0.11825E-01 -0.12799E-01
 -0.13654E-01 -0.14372E-01 -0.14948E-01 -0.15376E-01 -0.15637E-01 -0.15710E-01
 -0.15592E-01 -0.15315E-01 -0.14937E-01 -0.14528E-01 -0.14171E-01 -0.13960E-01
 -0.13960E-01 -0.14171E-01 -0.14528E-01 -0.14937E-01 -0.15315E-01 -0.15592E-01
 -0.15710E-01 -0.15637E-01 -0.15376E-01 -0.14949E-01 -0.14373E-01 -0.13654E-01
 -0.12800E-01 -0.11825E-01 -0.10746E-01 -0.95631E-02 -0.82704E-02 -0.68783E-02
 -0.54333E-02 -0.40184E-02 -0.27287E-02 -0.13451E-02 -0.21696E-02 -0.31584E-02
 -0.43238E-02 -0.56295E-02 -0.69978E-02 -0.83460E-02 -0.96170E-02 -0.10787E-01
 -0.11851E-01 -0.12809E-01 -0.13655E-01 -0.14376E-01 -0.14959E-01 -0.15401E-01
 -0.15696E-01 -0.15841E-01 -0.15834E-01 -0.15688E-01 -0.15440E-01 -0.15136E-01
 -0.14831E-01 -0.14578E-01 -0.14433E-01 -0.14433E-01 -0.14578E-01 -0.14831E-01
 -0.15136E-01 -0.15440E-01 -0.15688E-01 -0.15834E-01 -0.15841E-01 -0.15696E-01
 -0.15401E-01 -0.14960E-01 -0.14376E-01 -0.13655E-01 -0.12809E-01 -0.11851E-01
 -0.10787E-01 -0.96170E-02 -0.83460E-02 -0.69978E-02 -0.56295E-02 -0.43238E-02
 -0.23581E-02 -0.32886E-02 -0.43752E-02 -0.56134E-02 -0.69484E-02 -0.82979E-02
 -0.95903E-02 -0.10785E-01 -0.11866E-01 -0.12829E-01 -0.13670E-01 -0.14382E-01
 -0.14957E-01 -0.15380E-01 -0.15644E-01 -0.15751E-01 -0.15717E-01 -0.15563E-01
 -0.15315E-01 -0.15003E-01 -0.14667E-01 -0.14354E-01 -0.14110E-01 -0.13977E-01
 -0.13977E-01 -0.14110E-01 -0.14354E-01 -0.14667E-01 -0.15003E-01 -0.15315E-01
 -0.15563E-01 -0.15717E-01 -0.15751E-01 -0.15644E-01 -0.15380E-01 -0.14957E-01
 -0.14383E-01 -0.13670E-01 -0.12829E-01 -0.11866E-01 -0.10785E-01 -0.95904E-02
 -0.82980E-02 -0.69484E-02 -0.56134E-02 -0.31107E-02 -0.41136E-02 -0.52810E-02
 -0.65891E-02 -0.79656E-02 -0.93237E-02 -0.10598E-01 -0.11754E-01 -0.12777E-01
 -0.13658E-01 -0.14391E-01 -0.14970E-01 -0.15385E-01 -0.15620E-01 -0.15672E-01
 -0.15556E-01 -0.15309E-01 -0.14967E-01 -0.14559E-01 -0.14112E-01 -0.13664E-01
 -0.13265E-01 -0.12969E-01 -0.12812E-01 -0.12812E-01 -0.12969E-01 -0.13265E-01
 -0.13664E-01 -0.14112E-01 -0.14559E-01 -0.14967E-01 -0.15309E-01 -0.15556E-01
 -0.15672E-01 -0.15621E-01 -0.15385E-01 -0.14970E-01 -0.14391E-01 -0.13658E-01
 -0.12777E-01 -0.11754E-01 -0.10598E-01 -0.93237E-02 -0.79656E-02 -0.65892E-02
 -0.35487E-02 -0.45778E-02 -0.57978E-02 -0.71699E-02 -0.86065E-02 -0.10013E-01
 -0.11320E-01 -0.12488E-01 -0.13495E-01 -0.14324E-01 -0.14967E-01 -0.15414E-01
 -0.15653E-01 -0.15677E-01 -0.15498E-01 -0.15148E-01 -0.14673E-01 -0.14111E-01
 -0.13485E-01 -0.12824E-01 -0.12176E-01 -0.11610E-01 -0.11193E-01 -0.10975E-01
 -0.10975E-01 -0.11193E-01 -0.11610E-01 -0.12176E-01 -0.12824E-01 -0.13485E-01
 -0.14111E-01 -0.14673E-01 -0.15148E-01 -0.15498E-01 -0.15677E-01 -0.15653E-01
 -0.15414E-01 -0.14967E-01 -0.14324E-01 -0.13495E-01 -0.12488E-01 -0.11320E-01
 -0.10013E-01 -0.86065E-02 -0.71700E-02 -0.35489E-02 -0.45207E-02 -0.57383E-02
 -0.71658E-02 -0.87056E-02 -0.10242E-01 -0.11677E-01 -0.12942E-01 -0.13996E-01
 -0.14817E-01 -0.15392E-01 -0.15709E-01 -0.15763E-01 -0.15567E-01 -0.15155E-01
 -0.14570E-01 -0.13851E-01 -0.13022E-01 -0.12102E-01 -0.11134E-01 -0.10192E-01
 -0.93693E-02 -0.87619E-02 -0.84400E-02 -0.84401E-02 -0.87619E-02 -0.93693E-02
 -0.10192E-01 -0.11134E-01 -0.12102E-01 -0.13022E-01 -0.13851E-01 -0.14570E-01
 -0.15155E-01 -0.15567E-01 -0.15763E-01 -0.15709E-01 -0.15392E-01 -0.14817E-01
 -0.13996E-01 -0.12942E-01 -0.11677E-01 -0.10242E-01 -0.87056E-02 -0.71658E-02
 -0.29982E-02 -0.37500E-02 -0.48424E-02 -0.62893E-02 -0.79991E-02 -0.98079E-02
 -0.11535E-01 -0.13038E-01 -0.14237E-01 -0.15107E-01 -0.15645E-01 -0.15848E-01
 -0.15729E-01 -0.15324E-01 -0.14687E-01 -0.13859E-01 -0.12856E-01 -0.11688E-01
 -0.10385E-01 -0.90142E-02 -0.76767E-02 -0.64939E-02 -0.55986E-02 -0.51130E-02
 -0.51130E-02 -0.55986E-02 -0.64939E-02 -0.76768E-02 -0.90143E-02 -0.10385E-01
 -0.11688E-01 -0.12856E-01 -0.13859E-01 -0.14687E-01 -0.15324E-01 -0.15729E-01
 -0.15848E-01 -0.15645E-01 -0.15108E-01 -0.14237E-01 -0.13038E-01 -0.11535E-01
 -0.98079E-02 -0.79992E-02 -0.62894E-02 -0.18948E-02 -0.21311E-02 -0.28447E-02
 -0.41932E-02 -0.61309E-02 -0.84092E-02 -0.10680E-01 -0.12642E-01 -0.14140E-01
 -0.15148E-01 -0.15700E-01 -0.15828E-01 -0.15569E-01 -0.14983E-01 -0.14130E-01
 -0.13036E-01 -0.11695E-01 -0.10113E-01 -0.83370E-02 -0.64497E-02 -0.45532E-02
 -0.27921E-02 -0.13850E-02 -0.58994E-03 -0.58995E-03 -0.13850E-02 -0.27921E-02
 -0.45532E-02 -0.64498E-02 -0.83370E-02 -0.10113E-01 -0.11695E-01 -0.13036E-01
 -0.14130E-01 -0.14983E-01 -0.15569E-01 -0.15828E-01 -0.15700E-01 -0.15148E-01
 -0.14140E-01 -0.12642E-01 -0.10680E-01 -0.84093E-02 -0.61309E-02 -0.41932E-02
 -0.38157E-03  0.35331E-03  0.44269E-03 -0.56163E-03 -0.27355E-02 -0.57111E-02
 -0.88581E-02 -0.11597E-01 -0.13623E-01 -0.14909E-01 -0.15553E-01 -0.15660E-01
 -0.15307E-01 -0.14572E-01 -0.13508E-01 -0.12123E-01 -0.10400E-01 -0.83455E-02
 -0.59988E-02 -0.33922E-02 -0.57053E-03  0.22800E-02  0.47218E-02  0.61618E-02
  0.61618E-02  0.47218E-02  0.22800E-02 -0.57055E-03 -0.33922E-02 -0.59988E-02
 -0.83455E-02 -0.10400E-01 -0.12123E-01 -0.13508E-01 -0.14572E-01 -0.15307E-01
 -0.15660E-01 -0.15553E-01 -0.14909E-01 -0.13623E-01 -0.11597E-01 -0.88582E-02
 -0.57111E-02 -0.27355E-02 -0.56166E-03  0.13044E-02  0.35699E-02  0.50079E-02
  0.47020E-02  0.23525E-02 -0.15334E-02 -0.59242E-02 -0.98171E-02 -0.12662E-01
 -0.14402E-01 -0.15238E-01 -0.15381E-01 -0.14976E-01 -0.14117E-01 -0.12848E-01
 -0.11161E-01 -0.90378E-02 -0.64680E-02 -0.34033E-02  0.29604E-03  0.47229E-02
  0.95843E-02  0.13977E-01  0.16639E-01  0.16639E-01  0.13977E-01  0.95843E-02
  0.47229E-02  0.29601E-03 -0.34033E-02 -0.64680E-02 -0.90378E-02 -0.11161E-01
 -0.12848E-01 -0.14117E-01 -0.14976E-01 -0.15381E-01 -0.15238E-01 -0.14402E-01
 -0.12662E-01 -0.98172E-02 -0.59243E-02 -0.15335E-02  0.23524E-02  0.47020E-02
  0.29176E-02  0.72095E-02  0.10497E-01  0.11243E-01  0.88276E-02  0.38973E-02
 -0.20281E-02 -0.74005E-02 -0.11328E-01 -0.13694E-01 -0.14811E-01 -0.15040E-01
 -0.14617E-01 -0.13658E-01 -0.12198E-01 -0.10222E-01 -0.77069E-02 -0.45812E-02
 -0.59530E-03  0.47062E-02  0.11625E-01  0.19654E-01  0.27117E-01  0.31698E-01
  0.31698E-01  0.27117E-01  0.19654E-01  0.11625E-01  0.47061E-02 -0.59533E-03
 -0.45812E-02 -0.77069E-02 -0.10222E-01 -0.12198E-01 -0.13658E-01 -0.14617E-01
 -0.15041E-01 -0.14811E-01 -0.13694E-01 -0.11328E-01 -0.74006E-02 -0.20282E-02
  0.38972E-02  0.88275E-02  0.11243E-01  0.42671E-02  0.10783E-01  0.16140E-01
  0.18126E-01  0.15755E-01  0.97928E-02  0.22611E-02 -0.47057E-02 -0.98290E-02
 -0.12901E-01 -0.14349E-01 -0.14696E-01 -0.14280E-01 -0.13249E-01 -0.11629E-01
 -0.94018E-02 -0.65291E-02 -0.28293E-02  0.22398E-02  0.95455E-02  0.19628E-01
  0.31666E-01  0.42992E-01  0.49973E-01  0.49973E-01  0.42992E-01  0.31666E-01
  0.19628E-01  0.95455E-02  0.22398E-02 -0.28294E-02 -0.65292E-02 -0.94018E-02
 -0.11629E-01 -0.13249E-01 -0.14280E-01 -0.14696E-01 -0.14349E-01 -0.12901E-01
 -0.98291E-02 -0.47057E-02  0.22610E-02  0.97928E-02  0.15755E-01  0.18126E-01
  0.52290E-02  0.13680E-01  0.20855E-01  0.23964E-01  0.21695E-01  0.14898E-01
  0.60123E-02 -0.23261E-02 -0.84953E-02 -0.12195E-01 -0.13946E-01 -0.14409E-01
 -0.14017E-01 -0.12943E-01 -0.11210E-01 -0.87958E-02 -0.56381E-02 -0.14307E-02
  0.46664E-02  0.13915E-01  0.27062E-01  0.42960E-01  0.57982E-01  0.67252E-01
  0.67252E-01  0.57982E-01  0.42960E-01  0.27062E-01  0.13915E-01  0.46664E-02
 -0.14307E-02 -0.56381E-02 -0.87958E-02 -0.11210E-01 -0.12943E-01 -0.14017E-01
 -0.14409E-01 -0.13946E-01 -0.12195E-01 -0.84953E-02 -0.23262E-02  0.60122E-02
  0.14898E-01  0.21695E-01  0.23964E-01  0.57287E-02  0.15311E-01  0.23556E-01
  0.27336E-01  0.25147E-01  0.17883E-01  0.82187E-02 -0.91726E-03 -0.77007E-02
 -0.11774E-01 -0.13707E-01 -0.14244E-01 -0.13872E-01 -0.12781E-01 -0.10990E-01
 -0.84750E-02 -0.51553E-02 -0.64124E-03  0.60965E-02  0.16562E-01  0.31622E-01
  0.49918E-01  0.67228E-01  0.77911E-01  0.77911E-01  0.67228E-01  0.49918E-01
  0.31622E-01  0.16562E-01  0.60965E-02 -0.64125E-03 -0.51553E-02 -0.84750E-02
 -0.10990E-01 -0.12781E-01 -0.13872E-01 -0.14244E-01 -0.13707E-01 -0.11774E-01
 -0.77007E-02 -0.91727E-03  0.82187E-02  0.17883E-01  0.25147E-01  0.27336E-01
  0.57289E-02  0.15311E-01  0.23556E-01  0.27336E-01  0.25147E-01  0.17883E-01
  0.82187E-02 -0.91727E-03 -0.77007E-02 -0.11774E-01 -0.13707E-01 -0.14244E-01
 -0.13872E-01 -0.12781E-01 -0.10990E-01 -0.84750E-02 -0.51553E-02 -0.64121E-03
  0.60966E-02  0.16562E-01  0.31622E-01  0.49918E-01  0.67228E-01  0.77911E-01
  0.77911E-01  0.67228E-01  0.49918E-01  0.31622E-01  0.16562E-01  0.60966E-02
 -0.64121E-03 -0.51552E-02 -0.84750E-02 -0.10990E-01 -0.12781E-01 -0.13872E-01
 -0.14244E-01 -0.13707E-01 -0.11774E-01 -0.77007E-02 -0.91726E-03  0.82187E-02
  0.17883E-01  0.25147E-01  0.27336E-01  0.52294E-02  0.13680E-01  0.20855E-01
  0.23964E-01  0.21695E-01  0.14898E-01  0.60122E-02 -0.23262E-02 -0.84953E-02
 -0.12195E-01 -0.13946E-01 -0.14409E-01 -0.14017E-01 -0.12943E-01 -0.11210E-01
 -0.87958E-02 -0.56380E-02 -0.14306E-02  0.46666E-02  0.13915E-01  0.27062E-01
  0.42960E-01  0.57983E-01  0.67253E-01  0.67253E-01  0.57983E-01  0.42960E-01
  0.27062E-01  0.13915E-01  0.46666E-02 -0.14306E-02 -0.56380E-02 -0.87957E-02
 -0.11210E-01 -0.12943E-01 -0.14017E-01 -0.14409E-01 -0.13946E-01 -0.12195E-01
 -0.84953E-02 -0.23261E-02  0.60123E-02  0.14898E-01  0.21695E-01  0.23964E-01
  0.42677E-02  0.10784E-01  0.16140E-01  0.18126E-01  0.15755E-01  0.97928E-02
  0.22610E-02 -0.47057E-02 -0.98291E-02 -0.12901E-01 -0.14349E-01 -0.14696E-01
 -0.14280E-01 -0.13249E-01 -0.11629E-01 -0.94017E-02 -0.65291E-02 -0.28292E-02
  0.22400E-02  0.95458E-02  0.19628E-01  0.31667E-01  0.42993E-01  0.49974E-01
  0.49974E-01  0.42993E-01  0.31667E-01  0.19629E-01  0.95458E-02  0.22400E-02
 -0.28292E-02 -0.65291E-02 -0.94017E-02 -0.11629E-01 -0.13249E-01 -0.14280E-01
 -0.14696E-01 -0.14349E-01 -0.12901E-01 -0.98290E-02 -0.47057E-02  0.22611E-02
  0.97929E-02  0.15755E-01  0.18126E-01  0.29181E-02  0.72100E-02  0.10497E-01
  0.11243E-01  0.88277E-02  0.38973E-02 -0.20282E-02 -0.74006E-02 -0.11328E-01
 -0.13694E-01 -0.14811E-01 -0.15041E-01 -0.14617E-01 -0.13658E-01 -0.12198E-01
 -0.10222E-01 -0.77068E-02 -0.45811E-02 -0.59510E-03  0.47065E-02  0.11626E-01
  0.19655E-01  0.27118E-01  0.31699E-01  0.31699E-01  0.27118E-01  0.19655E-01
  0.11626E-01  0.47065E-02 -0.59508E-03 -0.45810E-02 -0.77068E-02 -0.10222E-01
 -0.12198E-01 -0.13658E-01 -0.14617E-01 -0.15041E-01 -0.14811E-01 -0.13694E-01
 -0.11328E-01 -0.74006E-02 -0.20282E-02  0.38973E-02  0.88277E-02  0.11243E-01
  0.13048E-02  0.35702E-02  0.50082E-02  0.47021E-02  0.23525E-02 -0.15335E-02
 -0.59243E-02 -0.98172E-02 -0.12662E-01 -0.14402E-01 -0.15238E-01 -0.15381E-01
 -0.14976E-01 -0.14117E-01 -0.12848E-01 -0.11161E-01 -0.90377E-02 -0.64679E-02
 -0.34031E-02  0.29633E-03  0.47233E-02  0.95848E-02  0.13978E-01  0.16640E-01
  0.16640E-01  0.13978E-01  0.95849E-02  0.47234E-02  0.29636E-03 -0.34031E-02
 -0.64678E-02 -0.90377E-02 -0.11161E-01 -0.12848E-01 -0.14117E-01 -0.14976E-01
 -0.15381E-01 -0.15238E-01 -0.14402E-01 -0.12662E-01 -0.98172E-02 -0.59243E-02
 -0.15334E-02  0.23525E-02  0.47021E-02 -0.38133E-03  0.35352E-03  0.44282E-03
 -0.56159E-03 -0.27355E-02 -0.57112E-02 -0.88582E-02 -0.11597E-01 -0.13624E-01
 -0.14909E-01 -0.15554E-01 -0.15660E-01 -0.15307E-01 -0.14572E-01 -0.13508E-01
 -0.12123E-01 -0.10400E-01 -0.83454E-02 -0.59986E-02 -0.33919E-02 -0.57018E-03
  0.22805E-02  0.47223E-02  0.61624E-02  0.61624E-02  0.47223E-02  0.22805E-02
 -0.57016E-03 -0.33919E-02 -0.59986E-02 -0.83454E-02 -0.10400E-01 -0.12123E-01
 -0.13508E-01 -0.14572E-01 -0.15307E-01 -0.15660E-01 -0.15553E-01 -0.14909E-01
 -0.13623E-01 -0.11597E-01 -0.88582E-02 -0.57111E-02 -0.27355E-02 -0.56156E-03
 -0.18948E-02 -0.21310E-02 -0.28447E-02 -0.41932E-02 -0.61310E-02 -0.84094E-02
 -0.10680E-01 -0.12642E-01 -0.14140E-01 -0.15148E-01 -0.15700E-01 -0.15828E-01
 -0.15569E-01 -0.14983E-01 -0.14130E-01 -0.13036E-01 -0.11695E-01 -0.10113E-01
 -0.83368E-02 -0.64495E-02 -0.45529E-02 -0.27917E-02 -0.13846E-02 -0.58950E-03
 -0.58950E-03 -0.13845E-02 -0.27917E-02 -0.45529E-02 -0.64495E-02 -0.83368E-02
 -0.10113E-01 -0.11695E-01 -0.13036E-01 -0.14130E-01 -0.14983E-01 -0.15569E-01
 -0.15828E-01 -0.15700E-01 -0.15148E-01 -0.14140E-01 -0.12642E-01 -0.10680E-01
 -0.84093E-02 -0.61309E-02 -0.41932E-02 -0.29982E-02 -0.37500E-02 -0.48425E-02
 -0.62894E-02 -0.79992E-02 -0.98080E-02 -0.11535E-01 -0.13038E-01 -0.14238E-01
 -0.15108E-01 -0.15645E-01 -0.15849E-01 -0.15729E-01 -0.15324E-01 -0.14687E-01
 -0.13859E-01 -0.12856E-01 -0.11688E-01 -0.10385E-01 -0.90141E-02 -0.76765E-02
 -0.64937E-02 -0.55983E-02 -0.51127E-02 -0.51127E-02 -0.55983E-02 -0.64936E-02
 -0.76765E-02 -0.90141E-02 -0.10384E-01 -0.11688E-01 -0.12856E-01 -0.13859E-01
 -0.14687E-01 -0.15324E-01 -0.15729E-01 -0.15848E-01 -0.15645E-01 -0.15108E-01
 -0.14237E-01 -0.13038E-01 -0.11535E-01 -0.98079E-02 -0.79992E-02 -0.62894E-02
 -0.35489E-02 -0.45207E-02 -0.57383E-02 -0.71659E-02 -0.87057E-02 -0.10242E-01
 -0.11677E-01 -0.12942E-01 -0.13996E-01 -0.14817E-01 -0.15392E-01 -0.15709E-01
 -0.15764E-01 -0.15568E-01 -0.15155E-01 -0.14570E-01 -0.13851E-01 -0.13022E-01
 -0.12102E-01 -0.11134E-01 -0.10191E-01 -0.93691E-02 -0.87617E-02 -0.84398E-02
 -0.84398E-02 -0.87617E-02 -0.93691E-02 -0.10191E-01 -0.11134E-01 -0.12102E-01
 -0.13022E-01 -0.13851E-01 -0.14570E-01 -0.15155E-01 -0.15567E-01 -0.15763E-01
 -0.15709E-01 -0.15392E-01 -0.14817E-01 -0.13996E-01 -0.12942E-01 -0.11677E-01
 -0.10242E-01 -0.87057E-02 -0.71658E-02 -0.35487E-02 -0.45778E-02 -0.57978E-02
 -0.71700E-02 -0.86066E-02 -0.10013E-01 -0.11320E-01 -0.12488E-01 -0.13495E-01
 -0.14324E-01 -0.14967E-01 -0.15414E-01 -0.15653E-01 -0.15677E-01 -0.15498E-01
 -0.15148E-01 -0.14673E-01 -0.14111E-01 -0.13485E-01 -0.12824E-01 -0.12176E-01
 -0.11610E-01 -0.11193E-01 -0.10975E-01 -0.10974E-01 -0.11193E-01 -0.11610E-01
 -0.12176E-01 -0.12824E-01 -0.13485E-01 -0.14111E-01 -0.14673E-01 -0.15148E-01
 -0.15498E-01 -0.15677E-01 -0.15653E-01 -0.15414E-01 -0.14967E-01 -0.14324E-01
 -0.13495E-01 -0.12488E-01 -0.11320E-01 -0.10013E-01 -0.86066E-02 -0.71700E-02
 -0.31107E-02 -0.41136E-02 -0.52810E-02 -0.65892E-02 -0.79657E-02 -0.93238E-02
 -0.10598E-01 -0.11754E-01 -0.12777E-01 -0.13658E-01 -0.14391E-01 -0.14970E-01
 -0.15385E-01 -0.15621E-01 -0.15672E-01 -0.15557E-01 -0.15309E-01 -0.14967E-01
 -0.14559E-01 -0.14112E-01 -0.13664E-01 -0.13265E-01 -0.12969E-01 -0.12812E-01
 -0.12812E-01 -0.12969E-01 -0.13265E-01 -0.13664E-01 -0.14112E-01 -0.14559E-01
 -0.14967E-01 -0.15309E-01 -0.15556E-01 -0.15672E-01 -0.15621E-01 -0.15385E-01
 -0.14970E-01 -0.14391E-01 -0.13658E-01 -0.12777E-01 -0.11754E-01 -0.10598E-01
 -0.93237E-02 -0.79657E-02 -0.65892E-02 -0.23582E-02 -0.32886E-02 -0.43752E-02
 -0.56134E-02 -0.69484E-02 -0.82980E-02 -0.95904E-02 -0.10785E-01 -0.11866E-01
 -0.12829E-01 -0.13670E-01 -0.14383E-01 -0.14957E-01 -0.15380E-01 -0.15644E-01
 -0.15751E-01 -0.15717E-01 -0.15563E-01 -0.15315E-01 -0.15003E-01 -0.14667E-01
 -0.14354E-01 -0.14110E-01 -0.13977E-01 -0.13977E-01 -0.14110E-01 -0.14354E-01
 -0.14667E-01 -0.15003E-01 -0.15315E-01 -0.15563E-01 -0.15717E-01 -0.15751E-01
 -0.15644E-01 -0.15380E-01 -0.14957E-01 -0.14383E-01 -0.13670E-01 -0.12829E-01
 -0.11866E-01 -0.10785E-01 -0.95904E-02 -0.82980E-02 -0.69484E-02 -0.56134E-02
 -0.13450E-02 -0.21696E-02 -0.31584E-02 -0.43238E-02 -0.56295E-02 -0.69978E-02
 -0.83460E-02 -0.96171E-02 -0.10787E-01 -0.11851E-01 -0.12809E-01 -0.13655E-01
 -0.14376E-01 -0.14960E-01 -0.15401E-01 -0.15696E-01 -0.15841E-01 -0.15834E-01
 -0.15688E-01 -0.15440E-01 -0.15136E-01 -0.14831E-01 -0.14578E-01 -0.14433E-01
 -0.14433E-01 -0.14578E-01 -0.14831E-01 -0.15136E-01 -0.15440E-01 -0.15688E-01
 -0.15834E-01 -0.15841E-01 -0.15696E-01 -0.15401E-01 -0.14960E-01 -0.14376E-01
 -0.13655E-01 -0.12809E-01 -0.11851E-01 -0.10787E-01 -0.96171E-02 -0.83460E-02
 -0.69978E-02 -0.56295E-02 -0.43238E-02 -0.73558E-04 -0.75766E-03 -0.16349E-02
 -0.27286E-02 -0.40184E-02 -0.54333E-02 -0.68783E-02 -0.82704E-02 -0.95631E-02
 -0.10746E-01 -0.11825E-01 -0.12800E-01 -0.13654E-01 -0.14373E-01 -0.14949E-01
 -0.15376E-01 -0.15638E-01 -0.15710E-01 -0.15592E-01 -0.15315E-01 -0.14937E-01
 -0.14528E-01 -0.14171E-01 -0.13960E-01 -0.13960E-01 -0.14171E-01 -0.14528E-01
 -0.14937E-01 -0.15315E-01 -0.15592E-01 -0.15710E-01 -0.15638E-01 -0.15376E-01
 -0.14949E-01 -0.14373E-01 -0.13654E-01 -0.12800E-01 -0.11825E-01 -0.10746E-01
 -0.95631E-02 -0.82704E-02 -0.68783E-02 -0.54333E-02 -0.40184E-02 -0.27286E-02
  0.14381E-02  0.94071E-03  0.19374E-03 -0.83006E-03 -0.21165E-02 -0.35996E-02
 -0.51761E-02 -0.67359E-02 -0.81973E-02 -0.95282E-02 -0.10736E-01 -0.11831E-01
 -0.12804E-01 -0.13631E-01 -0.14299E-01 -0.14796E-01 -0.15094E-01 -0.15152E-01
 -0.14942E-01 -0.14479E-01 -0.13825E-01 -0.13088E-01 -0.12431E-01 -0.12038E-01
 -0.12038E-01 -0.12431E-01 -0.13088E-01 -0.13825E-01 -0.14479E-01 -0.14942E-01
 -0.15152E-01 -0.15094E-01 -0.14796E-01 -0.14299E-01 -0.13631E-01 -0.12804E-01
 -0.11831E-01 -0.10736E-01 -0.95282E-02 -0.81973E-02 -0.67359E-02 -0.51761E-02
 -0.35996E-02 -0.21165E-02 -0.83010E-03  0.31614E-02  0.29288E-02  0.23420E-02
  0.13740E-02  0.59021E-04 -0.15197E-02 -0.32497E-02 -0.50059E-02 -0.66749E-02
 -0.81903E-02 -0.95448E-02 -0.10758E-01 -0.11833E-01 -0.12744E-01 -0.13464E-01
 -0.13968E-01 -0.14216E-01 -0.14134E-01 -0.13646E-01 -0.12725E-01 -0.11440E-01
 -0.99841E-02 -0.86825E-02 -0.79043E-02 -0.79043E-02 -0.86825E-02 -0.99841E-02
 -0.11440E-01 -0.12725E-01 -0.13646E-01 -0.14134E-01 -0.14216E-01 -0.13968E-01
 -0.13464E-01 -0.12744E-01 -0.11833E-01 -0.10758E-01 -0.95448E-02 -0.81903E-02
 -0.66749E-02 -0.50059E-02 -0.32498E-02 -0.15197E-02  0.58974E-04  0.13740E-02
  0.51150E-02  0.52954E-02  0.49298E-02  0.39765E-02  0.25348E-02  0.77223E-03
 -0.11553E-02 -0.31202E-02 -0.50077E-02 -0.67282E-02 -0.82484E-02 -0.95833E-02
 -0.10746E-01 -0.11717E-01 -0.12454E-01 -0.12911E-01 -0.13013E-01 -0.12630E-01
 -0.11609E-01 -0.98609E-02 -0.74720E-02 -0.47902E-02 -0.24087E-02 -0.99335E-03
 -0.99335E-03 -0.24087E-02 -0.47902E-02 -0.74720E-02 -0.98609E-02 -0.11609E-01
 -0.12630E-01 -0.13013E-01 -0.12911E-01 -0.12454E-01 -0.11717E-01 -0.10746E-01
 -0.95833E-02 -0.82484E-02 -0.67282E-02 -0.50077E-02 -0.31202E-02 -0.11553E-02
  0.77219E-03  0.25348E-02  0.39764E-02  0.72517E-02  0.80979E-02  0.80993E-02
  0.71347E-02  0.54066E-02  0.32748E-02  0.10319E-02 -0.11730E-02 -0.32648E-02
 -0.51754E-02 -0.68577E-02 -0.83103E-02 -0.95487E-02 -0.10558E-01 -0.11285E-01
 -0.11647E-01 -0.11512E-01 -0.10667E-01 -0.88623E-02 -0.59450E-02 -0.20500E-02
  0.22632E-02  0.60549E-02  0.82930E-02  0.82930E-02  0.60549E-02  0.22632E-02
 -0.20501E-02 -0.59450E-02 -0.88623E-02 -0.10667E-01 -0.11512E-01 -0.11647E-01
 -0.11285E-01 -0.10558E-01 -0.95487E-02 -0.83103E-02 -0.68576E-02 -0.51754E-02
 -0.32648E-02 -0.11731E-02  0.10319E-02  0.32747E-02  0.54065E-02  0.71346E-02
  0.90988E-02  0.10938E-01  0.11598E-01  0.10740E-01  0.86432E-02  0.59521E-02
  0.32289E-02  0.71704E-03 -0.15614E-02 -0.36148E-02 -0.54198E-02 -0.69633E-02
 -0.82548E-02 -0.92821E-02 -0.99785E-02 -0.10216E-01 -0.97889E-02 -0.83983E-02
 -0.57094E-02 -0.15351E-02  0.39125E-02  0.98532E-02  0.15019E-01  0.18048E-01
  0.18048E-01  0.15019E-01  0.98532E-02  0.39124E-02 -0.15351E-02 -0.57094E-02
 -0.83983E-02 -0.97888E-02 -0.10216E-01 -0.99785E-02 -0.92821E-02 -0.82548E-02
 -0.69633E-02 -0.54197E-02 -0.36148E-02 -0.15614E-02  0.71702E-03  0.32289E-02
  0.59520E-02  0.86431E-02  0.10740E-01  0.95572E-02  0.12647E-01  0.14381E-01
  0.14016E-01  0.11762E-01  0.85397E-02  0.52772E-02  0.24190E-02 -0.23781E-04
 -0.21567E-02 -0.40172E-02 -0.55985E-02 -0.69036E-02 -0.79208E-02 -0.85704E-02
 -0.86808E-02 -0.79839E-02 -0.61227E-02 -0.27336E-02  0.23511E-02  0.88356E-02
  0.15793E-01  0.21777E-01  0.25262E-01  0.25262E-01  0.21777E-01  0.15793E-01
  0.88355E-02  0.23511E-02 -0.27336E-02 -0.61227E-02 -0.79839E-02 -0.86808E-02
 -0.85703E-02 -0.79208E-02 -0.69036E-02 -0.55985E-02 -0.40172E-02 -0.21567E-02
 -0.23789E-04  0.24190E-02  0.52771E-02  0.85397E-02  0.11762E-01  0.14016E-01
  0.74155E-02  0.11742E-01  0.14915E-01  0.15629E-01  0.13799E-01  0.10460E-01
  0.68802E-02  0.37778E-02  0.12382E-02 -0.90195E-03 -0.27430E-02 -0.42965E-02
 -0.55645E-02 -0.65363E-02 -0.71254E-02 -0.71349E-02 -0.62716E-02 -0.41869E-02
 -0.57069E-03  0.46679E-02  0.11177E-01  0.18034E-01  0.23858E-01  0.27227E-01
  0.27227E-01  0.23858E-01  0.18034E-01  0.11177E-01  0.46678E-02 -0.57072E-03
 -0.41869E-02 -0.62716E-02 -0.71349E-02 -0.71254E-02 -0.65363E-02 -0.55644E-02
 -0.42965E-02 -0.27429E-02 -0.90194E-03  0.12382E-02  0.37778E-02  0.68801E-02
  0.10460E-01  0.13799E-01  0.15629E-01 -0.85816E-02 -0.34441E-02  0.27333E-02
  0.75325E-02  0.95298E-02  0.89547E-02  0.70252E-02  0.48491E-02  0.29013E-02
  0.12150E-02 -0.25152E-03 -0.14885E-02 -0.24829E-02 -0.32272E-02 -0.36553E-02
 -0.36240E-02 -0.29900E-02 -0.17132E-02  0.96808E-04  0.22131E-02  0.43604E-02
  0.62708E-02  0.77076E-02  0.84813E-02  0.84813E-02  0.77076E-02  0.62708E-02
  0.43604E-02  0.22131E-02  0.96807E-04 -0.17132E-02 -0.29900E-02 -0.36241E-02
 -0.36553E-02 -0.32272E-02 -0.24830E-02 -0.14885E-02 -0.25154E-03  0.12150E-02
  0.29012E-02  0.48491E-02  0.70251E-02  0.89547E-02  0.95298E-02  0.75324E-02
 -0.28705E-02  0.28724E-02  0.88096E-02  0.12568E-01  0.13092E-01  0.11069E-01
  0.80192E-02  0.51088E-02  0.27104E-02  0.72895E-03 -0.95821E-03 -0.23729E-02
 -0.35104E-02 -0.43613E-02 -0.48463E-02 -0.47860E-02 -0.39575E-02 -0.21850E-02
  0.58951E-03  0.42537E-02  0.84766E-02  0.12687E-01  0.16138E-01  0.18096E-01
  0.18096E-01  0.16138E-01  0.12687E-01  0.84766E-02  0.42538E-02  0.58952E-03
 -0.21850E-02 -0.39575E-02 -0.47860E-02 -0.48464E-02 -0.43613E-02 -0.35105E-02
 -0.23729E-02 -0.95823E-03  0.72894E-03  0.27104E-02  0.51088E-02  0.80192E-02
  0.11069E-01  0.13092E-01  0.12568E-01  0.37966E-02  0.93711E-02  0.14197E-01
  0.16315E-01  0.15219E-01  0.11972E-01  0.81630E-02  0.48220E-02  0.21543E-02
 -0.32582E-04 -0.18927E-02 -0.34541E-02 -0.47142E-02 -0.56624E-02 -0.62137E-02
 -0.61685E-02 -0.52423E-02 -0.31312E-02  0.39844E-03  0.53694E-02  0.11421E-01
  0.17709E-01  0.23005E-01  0.26055E-01  0.26055E-01  0.23005E-01  0.17709E-01
  0.11421E-01  0.53694E-02  0.39847E-03 -0.31312E-02 -0.52423E-02 -0.61685E-02
 -0.62137E-02 -0.56624E-02 -0.47142E-02 -0.34542E-02 -0.18927E-02 -0.32596E-04
  0.21543E-02  0.48220E-02  0.81630E-02  0.11972E-01  0.15219E-01  0.16315E-01
  0.88234E-02  0.13473E-01  0.16730E-01  0.17246E-01  0.15018E-01  0.11230E-01
  0.72727E-02  0.39017E-02  0.11753E-02 -0.11090E-02 -0.30697E-02 -0.47180E-02
 -0.60536E-02 -0.70700E-02 -0.76875E-02 -0.77128E-02 -0.68438E-02 -0.47016E-02
 -0.92387E-03  0.46335E-02  0.11631E-01  0.19076E-01  0.25446E-01  0.29145E-01
  0.29145E-01  0.25446E-01  0.19077E-01  0.11631E-01  0.46335E-02 -0.92384E-03
 -0.47016E-02 -0.68438E-02 -0.77128E-02 -0.76875E-02 -0.70700E-02 -0.60537E-02
 -0.47180E-02 -0.30697E-02 -0.11091E-02  0.11753E-02  0.39017E-02  0.72727E-02