       #
       # Generated by the Wannier90 code http://www.wannier.org
       # On 29Dec2023 at 23:55:10 
       #
CRYSTAL
PRIMVEC
   4.1863376   0.0000000   0.0000000
   0.0000000   4.1863376   0.0000000
   0.0000000   0.0000000   4.1863376
CONVVEC
   4.1863376   0.0000000   0.0000000
   0.0000000   4.1863376   0.0000000
   0.0000000   0.0000000   4.1863376
PRIMCOORD
     8  1
O       0.0000000   0.0000000   0.0000000
O       0.0000000   2.0931688   2.0931688
O       2.0931688   0.0000000   2.0931688
O       2.0931688   2.0931688   0.0000000
Ni      0.0000000   0.0000000   2.0931688
Ni      2.0931688   0.0000000   0.0000000
Ni      0.0000000   2.0931688   0.0000000
Ni      2.0931688   2.0931688   2.0931688


BEGIN_BLOCK_DATAGRID_3D
3D_field
BEGIN_DATAGRID_3D_UNKNOWN
    45    45    45
   -0.093030   -0.093030   -0.093030
   4.0933079   0.0000000   0.0000000
   0.0000000   4.0933079   0.0000000
   0.0000000   0.0000000   4.0933079
 -0.27019E-01 -0.18572E-01 -0.75507E-02  0.20583E-02  0.77565E-02  0.96004E-02
  0.92058E-02  0.80939E-02  0.69203E-02  0.57615E-02  0.46168E-02  0.35378E-02
  0.25208E-02  0.14626E-02  0.17025E-03 -0.17178E-02 -0.48092E-02 -0.97570E-02
 -0.16653E-01 -0.24292E-01 -0.29931E-01 -0.30153E-01 -0.22741E-01 -0.84973E-02
  0.84973E-02  0.22741E-01  0.30153E-01  0.29931E-01  0.24292E-01  0.16653E-01
  0.97570E-02  0.48092E-02  0.17177E-02 -0.17030E-03 -0.14627E-02 -0.25209E-02
 -0.35379E-02 -0.46168E-02 -0.57615E-02 -0.69202E-02 -0.80938E-02 -0.92057E-02
 -0.96003E-02 -0.77563E-02 -0.20581E-02 -0.17610E-01 -0.80815E-02  0.26512E-02
  0.10673E-01  0.14082E-01  0.13670E-01  0.11529E-01  0.92702E-02  0.74020E-02
  0.58322E-02  0.44711E-02  0.33479E-02  0.24666E-02  0.17702E-02  0.12160E-02
  0.79634E-03  0.49714E-03  0.28099E-03  0.10103E-03 -0.88758E-04 -0.30192E-03
 -0.46671E-03 -0.44812E-03 -0.18753E-03  0.18759E-03  0.44818E-03  0.46676E-03
  0.30196E-03  0.88771E-04 -0.10104E-03 -0.28102E-03 -0.49718E-03 -0.79639E-03
 -0.12160E-02 -0.17703E-02 -0.24667E-02 -0.33479E-02 -0.44711E-02 -0.58322E-02
 -0.74019E-02 -0.92701E-02 -0.11529E-01 -0.13670E-01 -0.14082E-01 -0.10672E-01
 -0.57431E-02  0.36182E-02  0.12628E-01  0.18021E-01  0.18773E-01  0.16286E-01
  0.12790E-01  0.97192E-02  0.73546E-02  0.54759E-02  0.39554E-02  0.28168E-02
  0.20743E-02  0.17266E-02  0.18938E-02  0.29262E-02  0.54022E-02  0.99062E-02
  0.16454E-01  0.23765E-01  0.29070E-01  0.29069E-01  0.21779E-01  0.81062E-02
 -0.81060E-02 -0.21779E-01 -0.29068E-01 -0.29070E-01 -0.23765E-01 -0.16454E-01
 -0.99062E-02 -0.54023E-02 -0.29263E-02 -0.18938E-02 -0.17266E-02 -0.20743E-02
 -0.28168E-02 -0.39554E-02 -0.54759E-02 -0.73546E-02 -0.97192E-02 -0.12790E-01
 -0.16286E-01 -0.18773E-01 -0.18021E-01  0.42843E-02  0.12253E-01  0.18758E-01
  0.21492E-01  0.20230E-01  0.16598E-01  0.12574E-01  0.92270E-02  0.66454E-02
  0.45945E-02  0.29840E-02  0.18518E-02  0.12213E-02  0.11378E-02  0.18346E-02
  0.38876E-02  0.82559E-02  0.15954E-01  0.27090E-01  0.39599E-01  0.48838E-01
  0.49139E-01  0.36977E-01  0.13794E-01 -0.13794E-01 -0.36976E-01 -0.49138E-01
 -0.48838E-01 -0.39598E-01 -0.27090E-01 -0.15954E-01 -0.82559E-02 -0.38877E-02
 -0.18347E-02 -0.11379E-02 -0.12213E-02 -0.18518E-02 -0.29840E-02 -0.45944E-02
 -0.66454E-02 -0.92269E-02 -0.12574E-01 -0.16598E-01 -0.20229E-01 -0.21492E-01
  0.99114E-02  0.15796E-01  0.19842E-01  0.20674E-01  0.18526E-01  0.14830E-01
  0.11047E-01  0.78588E-02  0.52783E-02  0.31696E-02  0.15263E-02  0.40418E-03
 -0.16664E-03 -0.10985E-03  0.84393E-03  0.33031E-02  0.82936E-02  0.16956E-01
  0.29491E-01  0.43688E-01  0.54364E-01  0.55040E-01  0.41587E-01  0.15546E-01
 -0.15546E-01 -0.41587E-01 -0.55040E-01 -0.54364E-01 -0.43688E-01 -0.29491E-01
 -0.16956E-01 -0.82936E-02 -0.33031E-02 -0.84400E-03  0.10979E-03  0.16660E-03
 -0.40422E-03 -0.15263E-02 -0.31696E-02 -0.52783E-02 -0.78587E-02 -0.11047E-01
 -0.14830E-01 -0.18526E-01 -0.20674E-01  0.11376E-01  0.15170E-01  0.17348E-01
  0.17203E-01  0.15070E-01  0.11947E-01  0.87460E-02  0.58769E-02  0.33889E-02
  0.12862E-02 -0.36415E-03 -0.15000E-02 -0.20826E-02 -0.20146E-02 -0.10525E-02
  0.12891E-02  0.58379E-02  0.13573E-01  0.24739E-01  0.37492E-01  0.47286E-01
  0.48292E-01  0.36685E-01  0.13749E-01 -0.13749E-01 -0.36685E-01 -0.48292E-01
 -0.47286E-01 -0.37492E-01 -0.24739E-01 -0.13573E-01 -0.58380E-02 -0.12892E-02
  0.10524E-02  0.20145E-02  0.20825E-02  0.15000E-02  0.36412E-03 -0.12862E-02
 -0.33889E-02 -0.58769E-02 -0.87460E-02 -0.11947E-01 -0.15069E-01 -0.17203E-01
  0.10537E-01  0.12699E-01  0.13689E-01  0.13171E-01  0.11379E-01  0.88802E-02
  0.61871E-02  0.35807E-02  0.11881E-02 -0.88897E-03 -0.25567E-02 -0.37558E-02
 -0.44295E-02 -0.44638E-02 -0.36676E-02 -0.17372E-02  0.18423E-02  0.77278E-02
  0.16123E-01  0.25762E-01  0.33360E-01  0.34582E-01  0.26495E-01  0.99694E-02
 -0.99693E-02 -0.26495E-01 -0.34582E-01 -0.33360E-01 -0.25762E-01 -0.16123E-01
 -0.77279E-02 -0.18424E-02  0.17371E-02  0.36676E-02  0.44637E-02  0.44294E-02
  0.37557E-02  0.25566E-02  0.88894E-03 -0.11882E-02 -0.35807E-02 -0.61871E-02
 -0.88801E-02 -0.11379E-01 -0.13171E-01  0.90573E-02  0.10144E-01  0.10434E-01
  0.97545E-02  0.82075E-02  0.60753E-02  0.36633E-02  0.12112E-02 -0.11093E-02
 -0.31737E-02 -0.48977E-02 -0.62185E-02 -0.70524E-02 -0.72755E-02 -0.67486E-02
 -0.53174E-02 -0.27405E-02  0.13122E-02  0.69394E-02  0.13385E-01  0.18648E-01
  0.20022E-01  0.15617E-01  0.59221E-02 -0.59220E-02 -0.15617E-01 -0.20022E-01
 -0.18648E-01 -0.13385E-01 -0.69394E-02 -0.13122E-02  0.27404E-02  0.53173E-02
  0.67485E-02  0.72754E-02  0.70523E-02  0.62184E-02  0.48976E-02  0.31736E-02
  0.11093E-02 -0.12112E-02 -0.36633E-02 -0.60752E-02 -0.82075E-02 -0.97545E-02
  0.76051E-02  0.80461E-02  0.79124E-02  0.70915E-02  0.56078E-02  0.36106E-02
  0.13185E-02 -0.10518E-02 -0.33360E-02 -0.54310E-02 -0.72640E-02 -0.87526E-02
 -0.97878E-02 -0.10251E-01 -0.10042E-01 -0.90869E-02 -0.72972E-02 -0.45685E-02
 -0.91746E-03  0.32232E-02  0.67978E-02  0.83751E-02  0.69303E-02  0.26906E-02
 -0.26906E-02 -0.69303E-02 -0.83751E-02 -0.67979E-02 -0.32232E-02  0.91739E-03
  0.45684E-02  0.72971E-02  0.90868E-02  0.10042E-01  0.10251E-01  0.97878E-02
  0.87525E-02  0.72640E-02  0.54310E-02  0.33360E-02  0.10517E-02 -0.13185E-02
 -0.36106E-02 -0.56078E-02 -0.70914E-02  0.62238E-02  0.62923E-02  0.59008E-02
  0.49611E-02  0.34669E-02  0.15127E-02 -0.72853E-03 -0.30720E-02 -0.53819E-02
 -0.75725E-02 -0.95621E-02 -0.11242E-01 -0.12491E-01 -0.13209E-01 -0.13325E-01
 -0.12780E-01 -0.11534E-01 -0.95844E-02 -0.70218E-02 -0.41165E-02 -0.13791E-02
  0.53697E-03  0.11559E-02  0.55302E-03 -0.55306E-03 -0.11560E-02 -0.53702E-03
  0.13791E-02  0.41164E-02  0.70217E-02  0.95843E-02  0.11534E-01  0.12780E-01
  0.13325E-01  0.13209E-01  0.12491E-01  0.11242E-01  0.95621E-02  0.75724E-02
  0.53818E-02  0.30720E-02  0.72852E-03 -0.15127E-02 -0.34669E-02 -0.49611E-02
  0.48946E-02  0.47779E-02  0.42666E-02  0.32793E-02  0.17917E-02 -0.13639E-03
 -0.23706E-02 -0.47557E-02 -0.71677E-02 -0.95129E-02 -0.11688E-01 -0.13566E-01
 -0.15030E-01 -0.15999E-01 -0.16411E-01 -0.16202E-01 -0.15323E-01 -0.13790E-01
 -0.11709E-01 -0.92667E-02 -0.67138E-02 -0.43298E-02 -0.23269E-02 -0.71944E-03
  0.71939E-03  0.23269E-02  0.43298E-02  0.67138E-02  0.92666E-02  0.11709E-01
  0.13790E-01  0.15323E-01  0.16202E-01  0.16411E-01  0.15999E-01  0.15030E-01
  0.13566E-01  0.11688E-01  0.95128E-02  0.71676E-02  0.47556E-02  0.23706E-02
  0.13638E-03 -0.17918E-02 -0.32793E-02  0.36647E-02  0.35289E-02  0.30342E-02
  0.20883E-02  0.64511E-03 -0.12670E-02 -0.35418E-02 -0.60341E-02 -0.86065E-02
 -0.11140E-01 -0.13513E-01 -0.15598E-01 -0.17284E-01 -0.18495E-01 -0.19165E-01
 -0.19220E-01 -0.18598E-01 -0.17301E-01 -0.15405E-01 -0.13032E-01 -0.10321E-01
 -0.74142E-02 -0.44392E-02 -0.14746E-02  0.14745E-02  0.44391E-02  0.74141E-02
  0.10321E-01  0.13032E-01  0.15404E-01  0.17301E-01  0.18598E-01  0.19220E-01
  0.19165E-01  0.18495E-01  0.17284E-01  0.15598E-01  0.13513E-01  0.11140E-01
  0.86064E-02  0.60340E-02  0.35418E-02  0.12670E-02 -0.64512E-03 -0.20884E-02
  0.25205E-02  0.25442E-02  0.22179E-02  0.14164E-02  0.63798E-04 -0.18335E-02
 -0.41791E-02 -0.68181E-02 -0.95848E-02 -0.12330E-01 -0.14918E-01 -0.17226E-01
 -0.19146E-01 -0.20592E-01 -0.21487E-01 -0.21752E-01 -0.21324E-01 -0.20183E-01
 -0.18357E-01 -0.15913E-01 -0.12937E-01 -0.95365E-02 -0.58354E-02 -0.19633E-02
  0.19632E-02  0.58354E-02  0.95365E-02  0.12937E-01  0.15913E-01  0.18357E-01
  0.20183E-01  0.21324E-01  0.21752E-01  0.21487E-01  0.20592E-01  0.19146E-01
  0.17226E-01  0.14918E-01  0.12330E-01  0.95848E-02  0.68181E-02  0.41790E-02
  0.18334E-02 -0.63816E-04 -0.14164E-02  0.13482E-02  0.17631E-02  0.18197E-02
  0.13170E-02  0.13514E-03 -0.17276E-02 -0.41596E-02 -0.69779E-02 -0.99801E-02
 -0.12980E-01 -0.15822E-01 -0.18375E-01 -0.20533E-01 -0.22202E-01 -0.23296E-01
 -0.23740E-01 -0.23473E-01 -0.22452E-01 -0.20666E-01 -0.18133E-01 -0.14912E-01
 -0.11104E-01 -0.68489E-02 -0.23146E-02  0.23146E-02  0.68489E-02  0.11104E-01
  0.14912E-01  0.18133E-01  0.20666E-01  0.22452E-01  0.23472E-01  0.23740E-01
  0.23296E-01  0.22201E-01  0.20533E-01  0.18375E-01  0.15822E-01  0.12980E-01
  0.99801E-02  0.69779E-02  0.41595E-02  0.17275E-02 -0.13516E-03 -0.13170E-02
 -0.43314E-04  0.11480E-02  0.19675E-02  0.20341E-02  0.11410E-02 -0.69394E-03
 -0.32841E-02 -0.63709E-02 -0.96938E-02 -0.13022E-01 -0.16165E-01 -0.18983E-01
 -0.21371E-01 -0.23242E-01 -0.24518E-01 -0.25128E-01 -0.25009E-01 -0.24106E-01
 -0.22374E-01 -0.19797E-01 -0.16410E-01 -0.12306E-01 -0.76319E-02 -0.25871E-02
  0.25871E-02  0.76319E-02  0.12306E-01  0.16410E-01  0.19797E-01  0.22374E-01
  0.24106E-01  0.25009E-01  0.25127E-01  0.24518E-01  0.23242E-01  0.21371E-01
  0.18983E-01  0.16165E-01  0.13021E-01  0.96937E-02  0.63709E-02  0.32841E-02
  0.69390E-03 -0.11410E-02 -0.20341E-02 -0.20101E-02  0.69946E-03  0.30225E-02
  0.41573E-02  0.37051E-02  0.17670E-02 -0.12394E-02 -0.48401E-02 -0.86527E-02
 -0.12402E-01 -0.15889E-01 -0.18979E-01 -0.21584E-01 -0.23640E-01 -0.25083E-01
 -0.25854E-01 -0.25891E-01 -0.25131E-01 -0.23507E-01 -0.20969E-01 -0.17521E-01
 -0.13234E-01 -0.82527E-02 -0.28060E-02  0.28060E-02  0.82527E-02  0.13234E-01
  0.17521E-01  0.20969E-01  0.23506E-01  0.25131E-01  0.25891E-01  0.25854E-01
  0.25083E-01  0.23640E-01  0.21584E-01  0.18979E-01  0.15889E-01  0.12402E-01
  0.86527E-02  0.48401E-02  0.12394E-02 -0.17670E-02 -0.37051E-02 -0.41573E-02
 -0.51705E-02  0.40710E-03  0.55809E-02  0.86735E-02  0.88850E-02  0.65112E-02
  0.25097E-02 -0.21332E-02 -0.67672E-02 -0.11081E-01 -0.14947E-01 -0.18304E-01
 -0.21112E-01 -0.23334E-01 -0.24930E-01 -0.25858E-01 -0.26068E-01 -0.25497E-01
 -0.24055E-01 -0.21658E-01 -0.18264E-01 -0.13908E-01 -0.87270E-02 -0.29772E-02
  0.29772E-02  0.87270E-02  0.13908E-01  0.18264E-01  0.21658E-01  0.24055E-01
  0.25497E-01  0.26068E-01  0.25858E-01  0.24930E-01  0.23334E-01  0.21112E-01
  0.18304E-01  0.14947E-01  0.11081E-01  0.67671E-02  0.21331E-02 -0.25097E-02
 -0.65112E-02 -0.88850E-02 -0.86735E-02 -0.10200E-01  0.23768E-03  0.10257E-01
  0.16642E-01  0.17867E-01  0.14555E-01  0.86452E-02  0.20951E-02 -0.39251E-02
 -0.90567E-02 -0.13360E-01 -0.16965E-01 -0.19936E-01 -0.22285E-01 -0.24002E-01
 -0.25074E-01 -0.25473E-01 -0.25134E-01 -0.23951E-01 -0.21800E-01 -0.18589E-01
 -0.14301E-01 -0.90450E-02 -0.30991E-02  0.30991E-02  0.90451E-02  0.14301E-01
  0.18589E-01  0.21800E-01  0.23951E-01  0.25134E-01  0.25473E-01  0.25074E-01
  0.24002E-01  0.22285E-01  0.19936E-01  0.16964E-01  0.13360E-01  0.90566E-02
  0.39251E-02 -0.20951E-02 -0.86453E-02 -0.14555E-01 -0.17867E-01 -0.16642E-01
 -0.17197E-01  0.15309E-03  0.17088E-01  0.28193E-01  0.30861E-01  0.26138E-01
  0.17360E-01  0.79324E-02 -0.15081E-03 -0.64244E-02 -0.11238E-01 -0.15042E-01
 -0.18093E-01 -0.20484E-01 -0.22255E-01 -0.23433E-01 -0.24014E-01 -0.23933E-01
 -0.23071E-01 -0.21278E-01 -0.18407E-01 -0.14363E-01 -0.91892E-02 -0.31690E-02
  0.31690E-02  0.91893E-02  0.14363E-01  0.18407E-01  0.21278E-01  0.23071E-01
  0.23933E-01  0.24014E-01  0.23433E-01  0.22255E-01  0.20484E-01  0.18092E-01
  0.15042E-01  0.11238E-01  0.64243E-02  0.15073E-03 -0.79325E-02 -0.17360E-01
 -0.26138E-01 -0.30861E-01 -0.28193E-01 -0.24922E-01  0.10370E-03  0.24753E-01
  0.41186E-01  0.45561E-01  0.39317E-01  0.27301E-01  0.14559E-01  0.40839E-02
 -0.34761E-02 -0.87788E-02 -0.12666E-01 -0.15651E-01 -0.17953E-01 -0.19676E-01
 -0.20889E-01 -0.21606E-01 -0.21769E-01 -0.21263E-01 -0.19932E-01 -0.17574E-01
 -0.13982E-01 -0.90910E-02 -0.31638E-02  0.31638E-02  0.90910E-02  0.13982E-01
  0.17574E-01  0.19932E-01  0.21263E-01  0.21769E-01  0.21606E-01  0.20889E-01
  0.19676E-01  0.17953E-01  0.15651E-01  0.12666E-01  0.87787E-02  0.34760E-02
 -0.40839E-02 -0.14559E-01 -0.27301E-01 -0.39317E-01 -0.45561E-01 -0.41186E-01
 -0.30582E-01  0.34272E-04  0.30349E-01  0.50787E-01  0.56575E-01  0.49359E-01
  0.35039E-01  0.19878E-01  0.76648E-02 -0.75413E-03 -0.62492E-02 -0.99807E-02
 -0.12699E-01 -0.14750E-01 -0.16300E-01 -0.17444E-01 -0.18210E-01 -0.18552E-01
 -0.18382E-01 -0.17562E-01 -0.15844E-01 -0.12904E-01 -0.85510E-02 -0.30075E-02
  0.30075E-02  0.85510E-02  0.12904E-01  0.15844E-01  0.17562E-01  0.18382E-01
  0.18552E-01  0.18210E-01  0.17444E-01  0.16299E-01  0.14750E-01  0.12699E-01
  0.99806E-02  0.62492E-02  0.75405E-03 -0.76649E-02 -0.19879E-01 -0.35039E-01
 -0.49359E-01 -0.56575E-01 -0.50787E-01 -0.30723E-01 -0.59964E-04  0.30397E-01
  0.51092E-01  0.57192E-01  0.50249E-01  0.36117E-01  0.21110E-01  0.91207E-02
  0.10653E-02 -0.39409E-02 -0.71326E-02 -0.93430E-02 -0.10975E-01 -0.12217E-01
 -0.13170E-01 -0.13861E-01 -0.14266E-01 -0.14335E-01 -0.13963E-01 -0.12895E-01
 -0.10749E-01 -0.72534E-02 -0.25764E-02  0.25763E-02  0.72533E-02  0.10749E-01
  0.12895E-01  0.13963E-01  0.14336E-01  0.14266E-01  0.13861E-01  0.13170E-01
  0.12217E-01  0.10975E-01  0.93429E-02  0.71325E-02  0.39408E-02 -0.10654E-02
 -0.91208E-02 -0.21110E-01 -0.36117E-01 -0.50249E-01 -0.57192E-01 -0.51092E-01
 -0.23128E-01 -0.10952E-03  0.22797E-01  0.38440E-01  0.43168E-01  0.38092E-01
  0.27573E-01  0.16362E-01  0.74317E-02  0.15089E-02 -0.20669E-02 -0.42514E-02
 -0.57077E-02 -0.67644E-02 -0.75738E-02 -0.82105E-02 -0.86955E-02 -0.90204E-02
 -0.91685E-02 -0.90741E-02 -0.85401E-02 -0.72491E-02 -0.49596E-02 -0.17745E-02
  0.17743E-02  0.49594E-02  0.72490E-02  0.85401E-02  0.90742E-02  0.91686E-02
  0.90204E-02  0.86955E-02  0.82105E-02  0.75737E-02  0.67643E-02  0.57076E-02
  0.42513E-02  0.20668E-02 -0.15090E-02 -0.74318E-02 -0.16362E-01 -0.27573E-01
 -0.38092E-01 -0.43168E-01 -0.38440E-01 -0.86341E-02 -0.55328E-04  0.84892E-02
  0.14338E-01  0.16128E-01  0.14261E-01  0.10357E-01  0.61863E-02  0.28667E-02
  0.67680E-03 -0.62793E-03 -0.14084E-02 -0.19184E-02 -0.22851E-02 -0.25668E-02
 -0.27912E-02 -0.29661E-02 -0.30903E-02 -0.31613E-02 -0.31571E-02 -0.30027E-02
 -0.25739E-02 -0.17738E-02 -0.63713E-03  0.63686E-03  0.17736E-02  0.25738E-02
  0.30027E-02  0.31572E-02  0.31614E-02  0.30903E-02  0.29661E-02  0.27912E-02
  0.25668E-02  0.22850E-02  0.19183E-02  0.14083E-02  0.62785E-03 -0.67690E-03
 -0.28668E-02 -0.61864E-02 -0.10357E-01 -0.14262E-01 -0.16128E-01 -0.14338E-01
  0.86342E-02  0.55447E-04 -0.84891E-02 -0.14338E-01 -0.16128E-01 -0.14262E-01
 -0.10357E-01 -0.61865E-02 -0.28668E-02 -0.67695E-03  0.62781E-03  0.14083E-02
  0.19183E-02  0.22850E-02  0.25668E-02  0.27913E-02  0.29662E-02  0.30905E-02
  0.31616E-02  0.31574E-02  0.30031E-02  0.25742E-02  0.17739E-02  0.63698E-03
 -0.63721E-03 -0.17741E-02 -0.25742E-02 -0.30030E-02 -0.31573E-02 -0.31615E-02
 -0.30904E-02 -0.29662E-02 -0.27913E-02 -0.25669E-02 -0.22851E-02 -0.19184E-02
 -0.14084E-02 -0.62790E-03  0.67685E-03  0.28667E-02  0.61864E-02  0.10357E-01
  0.14262E-01  0.16128E-01  0.14338E-01  0.23128E-01  0.10967E-03 -0.22797E-01
 -0.38440E-01 -0.43168E-01 -0.38092E-01 -0.27573E-01 -0.16362E-01 -0.74319E-02
 -0.15090E-02  0.20668E-02  0.42513E-02  0.57076E-02  0.67644E-02  0.75738E-02
  0.82105E-02  0.86956E-02  0.90205E-02  0.91688E-02  0.90744E-02  0.85405E-02
  0.72493E-02  0.49597E-02  0.17744E-02 -0.17745E-02 -0.49597E-02 -0.72493E-02
 -0.85404E-02 -0.90743E-02 -0.91687E-02 -0.90205E-02 -0.86956E-02 -0.82105E-02
 -0.75738E-02 -0.67644E-02 -0.57077E-02 -0.42514E-02 -0.20669E-02  0.15089E-02
  0.74318E-02  0.16362E-01  0.27573E-01  0.38092E-01  0.43168E-01  0.38440E-01
  0.30723E-01  0.60151E-04 -0.30397E-01 -0.51092E-01 -0.57192E-01 -0.50249E-01
 -0.36117E-01 -0.21110E-01 -0.91209E-02 -0.10655E-02  0.39408E-02  0.71325E-02
  0.93429E-02  0.10975E-01  0.12217E-01  0.13170E-01  0.13861E-01  0.14266E-01
  0.14336E-01  0.13963E-01  0.12895E-01  0.10749E-01  0.72535E-02  0.25764E-02
 -0.25764E-02 -0.72535E-02 -0.10749E-01 -0.12895E-01 -0.13963E-01 -0.14336E-01
 -0.14266E-01 -0.13861E-01 -0.13170E-01 -0.12217E-01 -0.10975E-01 -0.93430E-02
 -0.71325E-02 -0.39409E-02  0.10654E-02  0.91208E-02  0.21110E-01  0.36117E-01
  0.50249E-01  0.57192E-01  0.51092E-01  0.30582E-01 -0.34067E-04 -0.30349E-01
 -0.50787E-01 -0.56575E-01 -0.49359E-01 -0.35040E-01 -0.19879E-01 -0.76650E-02
  0.75400E-03  0.62491E-02  0.99806E-02  0.12699E-01  0.14750E-01  0.16299E-01
  0.17444E-01  0.18210E-01  0.18552E-01  0.18382E-01  0.17562E-01  0.15844E-01
  0.12904E-01  0.85512E-02  0.30076E-02 -0.30075E-02 -0.85511E-02 -0.12904E-01
 -0.15844E-01 -0.17562E-01 -0.18382E-01 -0.18552E-01 -0.18210E-01 -0.17444E-01
 -0.16300E-01 -0.14750E-01 -0.12699E-01 -0.99807E-02 -0.62492E-02 -0.75410E-03
  0.76649E-02  0.19879E-01  0.35039E-01  0.49359E-01  0.56575E-01  0.50787E-01
  0.24922E-01 -0.10351E-03 -0.24752E-01 -0.41185E-01 -0.45561E-01 -0.39317E-01
 -0.27301E-01 -0.14560E-01 -0.40840E-02  0.34759E-02  0.87786E-02  0.12666E-01
  0.15651E-01  0.17953E-01  0.19676E-01  0.20889E-01  0.21606E-01  0.21769E-01
  0.21263E-01  0.19932E-01  0.17575E-01  0.13983E-01  0.90911E-02  0.31639E-02
 -0.31638E-02 -0.90910E-02 -0.13982E-01 -0.17575E-01 -0.19932E-01 -0.21263E-01
 -0.21769E-01 -0.21606E-01 -0.20889E-01 -0.19676E-01 -0.17953E-01 -0.15651E-01
 -0.12666E-01 -0.87787E-02 -0.34760E-02  0.40839E-02  0.14559E-01  0.27301E-01
  0.39317E-01  0.45561E-01  0.41185E-01  0.17197E-01 -0.15295E-03 -0.17088E-01
 -0.28192E-01 -0.30861E-01 -0.26138E-01 -0.17360E-01 -0.79325E-02  0.15068E-03
  0.64243E-02  0.11238E-01  0.15042E-01  0.18092E-01  0.20484E-01  0.22255E-01
  0.23433E-01  0.24014E-01  0.23933E-01  0.23071E-01  0.21278E-01  0.18408E-01
  0.14363E-01  0.91894E-02  0.31691E-02 -0.31690E-02 -0.91892E-02 -0.14363E-01
 -0.18407E-01 -0.21278E-01 -0.23071E-01 -0.23933E-01 -0.24014E-01 -0.23433E-01
 -0.22255E-01 -0.20484E-01 -0.18093E-01 -0.15042E-01 -0.11238E-01 -0.64244E-02
 -0.15078E-03  0.79324E-02  0.17360E-01  0.26138E-01  0.30861E-01  0.28192E-01
  0.10200E-01 -0.23760E-03 -0.10257E-01 -0.16642E-01 -0.17867E-01 -0.14555E-01
 -0.86453E-02 -0.20952E-02  0.39250E-02  0.90566E-02  0.13360E-01  0.16964E-01
  0.19936E-01  0.22285E-01  0.24002E-01  0.25074E-01  0.25473E-01  0.25134E-01
  0.23951E-01  0.21800E-01  0.18590E-01  0.14301E-01  0.90451E-02  0.30992E-02
 -0.30991E-02 -0.90450E-02 -0.14301E-01 -0.18589E-01 -0.21800E-01 -0.23951E-01
 -0.25134E-01 -0.25473E-01 -0.25074E-01 -0.24002E-01 -0.22285E-01 -0.19936E-01
 -0.16965E-01 -0.13360E-01 -0.90567E-02 -0.39251E-02  0.20951E-02  0.86452E-02
  0.14555E-01  0.17866E-01  0.16642E-01  0.51705E-02 -0.40706E-03 -0.55809E-02
 -0.86735E-02 -0.88850E-02 -0.65113E-02 -0.25098E-02  0.21330E-02  0.67670E-02
  0.11081E-01  0.14947E-01  0.18304E-01  0.21112E-01  0.23334E-01  0.24930E-01
  0.25858E-01  0.26068E-01  0.25497E-01  0.24055E-01  0.21658E-01  0.18264E-01
  0.13908E-01  0.87270E-02  0.29772E-02 -0.29772E-02 -0.87270E-02 -0.13908E-01
 -0.18264E-01 -0.21658E-01 -0.24055E-01 -0.25497E-01 -0.26068E-01 -0.25858E-01
 -0.24930E-01 -0.23334E-01 -0.21112E-01 -0.18304E-01 -0.14947E-01 -0.11081E-01
 -0.67671E-02 -0.21331E-02  0.25097E-02  0.65112E-02  0.88850E-02  0.86735E-02
  0.20101E-02 -0.69945E-03 -0.30225E-02 -0.41573E-02 -0.37052E-02 -0.17671E-02
  0.12393E-02  0.48400E-02  0.86526E-02  0.12401E-01  0.15889E-01  0.18979E-01
  0.21584E-01  0.23640E-01  0.25083E-01  0.25854E-01  0.25891E-01  0.25131E-01
  0.23506E-01  0.20969E-01  0.17521E-01  0.13234E-01  0.82527E-02  0.28060E-02
 -0.28060E-02 -0.82527E-02 -0.13234E-01 -0.17521E-01 -0.20969E-01 -0.23506E-01
 -0.25131E-01 -0.25891E-01 -0.25854E-01 -0.25083E-01 -0.23640E-01 -0.21584E-01
 -0.18979E-01 -0.15889E-01 -0.12402E-01 -0.86527E-02 -0.48401E-02 -0.12394E-02
  0.17670E-02  0.37051E-02  0.41573E-02  0.43315E-04 -0.11480E-02 -0.19675E-02
 -0.20342E-02 -0.11411E-02  0.69385E-03  0.32840E-02  0.63708E-02  0.96937E-02
  0.13021E-01  0.16165E-01  0.18983E-01  0.21371E-01  0.23242E-01  0.24518E-01
  0.25127E-01  0.25009E-01  0.24106E-01  0.22374E-01  0.19797E-01  0.16410E-01
  0.12306E-01  0.76319E-02  0.25871E-02 -0.25871E-02 -0.76319E-02 -0.12306E-01
 -0.16410E-01 -0.19797E-01 -0.22374E-01 -0.24106E-01 -0.25009E-01 -0.25127E-01
 -0.24518E-01 -0.23242E-01 -0.21371E-01 -0.18983E-01 -0.16165E-01 -0.13021E-01
 -0.96937E-02 -0.63709E-02 -0.32841E-02 -0.69391E-03  0.11410E-02  0.20341E-02
 -0.13482E-02 -0.17631E-02 -0.18198E-02 -0.13171E-02 -0.13521E-03  0.17275E-02
  0.41595E-02  0.69778E-02  0.99800E-02  0.12980E-01  0.15822E-01  0.18375E-01
  0.20533E-01  0.22201E-01  0.23296E-01  0.23740E-01  0.23472E-01  0.22452E-01
  0.20666E-01  0.18133E-01  0.14912E-01  0.11104E-01  0.68489E-02  0.23146E-02
 -0.23146E-02 -0.68489E-02 -0.11104E-01 -0.14912E-01 -0.18133E-01 -0.20666E-01
 -0.22452E-01 -0.23472E-01 -0.23740E-01 -0.23296E-01 -0.22201E-01 -0.20533E-01
 -0.18375E-01 -0.15822E-01 -0.12980E-01 -0.99801E-02 -0.69779E-02 -0.41595E-02
 -0.17275E-02  0.13516E-03  0.13170E-02 -0.25205E-02 -0.25443E-02 -0.22180E-02
 -0.14164E-02 -0.63870E-04  0.18334E-02  0.41790E-02  0.68180E-02  0.95847E-02
  0.12330E-01  0.14918E-01  0.17226E-01  0.19146E-01  0.20592E-01  0.21487E-01
  0.21752E-01  0.21324E-01  0.20183E-01  0.18357E-01  0.15913E-01  0.12937E-01
  0.95364E-02  0.58354E-02  0.19632E-02 -0.19632E-02 -0.58354E-02 -0.95365E-02
 -0.12937E-01 -0.15913E-01 -0.18357E-01 -0.20183E-01 -0.21324E-01 -0.21752E-01
 -0.21487E-01 -0.20592E-01 -0.19146E-01 -0.17226E-01 -0.14918E-01 -0.12330E-01
 -0.95848E-02 -0.68181E-02 -0.41790E-02 -0.18334E-02  0.63826E-04  0.14164E-02
 -0.36647E-02 -0.35290E-02 -0.30342E-02 -0.20884E-02 -0.64518E-03  0.12669E-02
  0.35417E-02  0.60339E-02  0.86064E-02  0.11140E-01  0.13513E-01  0.15597E-01
  0.17284E-01  0.18495E-01  0.19165E-01  0.19220E-01  0.18598E-01  0.17301E-01
  0.15404E-01  0.13032E-01  0.10321E-01  0.74141E-02  0.44391E-02  0.14745E-02
 -0.14746E-02 -0.44392E-02 -0.74142E-02 -0.10321E-01 -0.13032E-01 -0.15404E-01
 -0.17301E-01 -0.18598E-01 -0.19220E-01 -0.19165E-01 -0.18495E-01 -0.17284E-01
 -0.15598E-01 -0.13513E-01 -0.11140E-01 -0.86064E-02 -0.60340E-02 -0.35418E-02
 -0.12670E-02  0.64514E-03  0.20884E-02 -0.48946E-02 -0.47779E-02 -0.42667E-02
 -0.32793E-02 -0.17918E-02  0.13632E-03  0.23705E-02  0.47556E-02  0.71676E-02
  0.95127E-02  0.11688E-01  0.13566E-01  0.15030E-01  0.15999E-01  0.16411E-01
  0.16202E-01  0.15323E-01  0.13790E-01  0.11709E-01  0.92665E-02  0.67137E-02
  0.43297E-02  0.23268E-02  0.71937E-03 -0.71944E-03 -0.23269E-02 -0.43298E-02
 -0.67138E-02 -0.92666E-02 -0.11709E-01 -0.13790E-01 -0.15323E-01 -0.16202E-01
 -0.16411E-01 -0.15999E-01 -0.15030E-01 -0.13566E-01 -0.11688E-01 -0.95128E-02
 -0.71676E-02 -0.47556E-02 -0.23706E-02 -0.13636E-03  0.17918E-02  0.32793E-02
 -0.62238E-02 -0.62923E-02 -0.59008E-02 -0.49612E-02 -0.34669E-02 -0.15128E-02
  0.72845E-03  0.30719E-02  0.53817E-02  0.75723E-02  0.95620E-02  0.11242E-01
  0.12491E-01  0.13209E-01  0.13324E-01  0.12780E-01  0.11534E-01  0.95842E-02
  0.70216E-02  0.41164E-02  0.13790E-02 -0.53707E-03 -0.11560E-02 -0.55308E-03
  0.55303E-03  0.11560E-02  0.53701E-03 -0.13791E-02 -0.41164E-02 -0.70217E-02
 -0.95843E-02 -0.11534E-01 -0.12780E-01 -0.13325E-01 -0.13209E-01 -0.12491E-01
 -0.11242E-01 -0.95621E-02 -0.75724E-02 -0.53818E-02 -0.30720E-02 -0.72849E-03
  0.15127E-02  0.34669E-02  0.49611E-02 -0.76051E-02 -0.80461E-02 -0.79124E-02
 -0.70915E-02 -0.56078E-02 -0.36107E-02 -0.13185E-02  0.10517E-02  0.33359E-02
  0.54309E-02  0.72639E-02  0.87524E-02  0.97877E-02  0.10251E-01  0.10042E-01
  0.90867E-02  0.72970E-02  0.45683E-02  0.91729E-03 -0.32233E-02 -0.67979E-02
 -0.83752E-02 -0.69304E-02 -0.26906E-02  0.26906E-02  0.69303E-02  0.83751E-02
  0.67979E-02  0.32233E-02 -0.91737E-03 -0.45684E-02 -0.72971E-02 -0.90868E-02
 -0.10042E-01 -0.10251E-01 -0.97877E-02 -0.87525E-02 -0.72640E-02 -0.54310E-02
 -0.33359E-02 -0.10517E-02  0.13185E-02  0.36106E-02  0.56078E-02  0.70915E-02
 -0.90573E-02 -0.10144E-01 -0.10434E-01 -0.97545E-02 -0.82075E-02 -0.60753E-02
 -0.36634E-02 -0.12113E-02  0.11092E-02  0.31736E-02  0.48976E-02  0.62183E-02
  0.70522E-02  0.72753E-02  0.67484E-02  0.53172E-02  0.27403E-02 -0.13123E-02
 -0.69395E-02 -0.13385E-01 -0.18648E-01 -0.20022E-01 -0.15617E-01 -0.59221E-02
  0.59221E-02  0.15617E-01  0.20022E-01  0.18648E-01  0.13385E-01  0.69395E-02
  0.13123E-02 -0.27404E-02 -0.53173E-02 -0.67485E-02 -0.72754E-02 -0.70523E-02
 -0.62184E-02 -0.48976E-02 -0.31736E-02 -0.11093E-02  0.12113E-02  0.36634E-02
  0.60753E-02  0.82075E-02  0.97545E-02 -0.10537E-01 -0.12699E-01 -0.13689E-01
 -0.13171E-01 -0.11379E-01 -0.88802E-02 -0.61871E-02 -0.35807E-02 -0.11882E-02
  0.88888E-03  0.25566E-02  0.37556E-02  0.44293E-02  0.44636E-02  0.36675E-02
  0.17370E-02 -0.18425E-02 -0.77280E-02 -0.16123E-01 -0.25762E-01 -0.33360E-01
 -0.34582E-01 -0.26495E-01 -0.99693E-02  0.99694E-02  0.26495E-01  0.34582E-01
  0.33360E-01  0.25762E-01  0.16123E-01  0.77279E-02  0.18424E-02 -0.17371E-02
 -0.36675E-02 -0.44637E-02 -0.44294E-02 -0.37557E-02 -0.25566E-02 -0.88891E-03
  0.11882E-02  0.35807E-02  0.61871E-02  0.88802E-02  0.11379E-01  0.13171E-01
 -0.11376E-01 -0.15170E-01 -0.17348E-01 -0.17203E-01 -0.15069E-01 -0.11947E-01
 -0.87460E-02 -0.58769E-02 -0.33890E-02 -0.12863E-02  0.36405E-03  0.14999E-02
  0.20824E-02  0.20144E-02  0.10523E-02 -0.12893E-02 -0.58381E-02 -0.13574E-01
 -0.24740E-01 -0.37492E-01 -0.47286E-01 -0.48292E-01 -0.36685E-01 -0.13749E-01
  0.13749E-01  0.36685E-01  0.48292E-01  0.47286E-01  0.37492E-01  0.24739E-01
  0.13573E-01  0.58381E-02  0.12892E-02 -0.10524E-02 -0.20145E-02 -0.20825E-02
 -0.15000E-02 -0.36409E-03  0.12862E-02  0.33890E-02  0.58769E-02  0.87460E-02
  0.11947E-01  0.15070E-01  0.17203E-01 -0.99114E-02 -0.15795E-01 -0.19842E-01
 -0.20674E-01 -0.18525E-01 -0.14830E-01 -0.11047E-01 -0.78587E-02 -0.52784E-02
 -0.31696E-02 -0.15264E-02 -0.40430E-03  0.16651E-03  0.10970E-03 -0.84409E-03
 -0.33032E-02 -0.82937E-02 -0.16956E-01 -0.29491E-01 -0.43688E-01 -0.54364E-01
 -0.55040E-01 -0.41587E-01 -0.15546E-01  0.15546E-01  0.41587E-01  0.55040E-01
  0.54364E-01  0.43688E-01  0.29491E-01  0.16956E-01  0.82937E-02  0.33032E-02
  0.84404E-03 -0.10975E-03 -0.16655E-03  0.40426E-03  0.15264E-02  0.31696E-02
  0.52784E-02  0.78588E-02  0.11047E-01  0.14830E-01  0.18526E-01  0.20674E-01
 -0.42842E-02 -0.12253E-01 -0.18757E-01 -0.21492E-01 -0.20229E-01 -0.16598E-01
 -0.12574E-01 -0.92269E-02 -0.66454E-02 -0.45945E-02 -0.29841E-02 -0.18519E-02
 -0.12214E-02 -0.11380E-02 -0.18348E-02 -0.38878E-02 -0.82560E-02 -0.15954E-01
 -0.27090E-01 -0.39598E-01 -0.48838E-01 -0.49138E-01 -0.36976E-01 -0.13794E-01
  0.13794E-01  0.36976E-01  0.49139E-01  0.48838E-01  0.39599E-01  0.27090E-01
  0.15954E-01  0.82560E-02  0.38877E-02  0.18347E-02  0.11379E-02  0.12214E-02
  0.18519E-02  0.29841E-02  0.45945E-02  0.66454E-02  0.92270E-02  0.12574E-01
  0.16598E-01  0.20230E-01  0.21492E-01 -0.20039E-01 -0.10582E-01  0.39839E-03
  0.89262E-02  0.12940E-01  0.13066E-01  0.11304E-01  0.92668E-02  0.75179E-02
  0.60171E-02  0.46978E-02  0.35825E-02  0.26502E-02  0.18029E-02  0.91716E-03
 -0.18483E-03 -0.18016E-02 -0.42675E-02 -0.76542E-02 -0.11413E-01 -0.14246E-01
 -0.14482E-01 -0.10992E-01 -0.41208E-02  0.41210E-02  0.10992E-01  0.14483E-01
  0.14246E-01  0.11413E-01  0.76542E-02  0.42674E-02  0.18016E-02  0.18476E-03
 -0.91723E-03 -0.18029E-02 -0.26503E-02 -0.35826E-02 -0.46978E-02 -0.60171E-02
 -0.75179E-02 -0.92668E-02 -0.11304E-01 -0.13066E-01 -0.12940E-01 -0.89261E-02
 -0.95406E-02  0.10588E-02  0.11625E-01  0.18294E-01  0.19690E-01  0.17262E-01
  0.13534E-01  0.10214E-01  0.76975E-02  0.57453E-02  0.41805E-02  0.29932E-02
  0.21703E-02  0.16698E-02  0.15401E-02  0.19986E-02  0.34052E-02  0.61074E-02
  0.10086E-01  0.14518E-01  0.17688E-01  0.17609E-01  0.13143E-01  0.48809E-02
 -0.48807E-02 -0.13143E-01 -0.17609E-01 -0.17688E-01 -0.14518E-01 -0.10086E-01
 -0.61074E-02 -0.34053E-02 -0.19986E-02 -0.15402E-02 -0.16699E-02 -0.21703E-02
 -0.29932E-02 -0.41806E-02 -0.57453E-02 -0.76975E-02 -0.10214E-01 -0.13534E-01
 -0.17262E-01 -0.19690E-01 -0.18294E-01  0.23516E-02  0.12668E-01  0.21391E-01
  0.25339E-01  0.24024E-01  0.19492E-01  0.14392E-01  0.10244E-01  0.72120E-02
  0.49316E-02  0.31855E-02  0.19572E-02  0.12468E-02  0.10723E-02  0.16488E-02
  0.35595E-02  0.77761E-02  0.15296E-01  0.26181E-01  0.38354E-01  0.47276E-01
  0.47492E-01  0.35684E-01  0.13300E-01 -0.13300E-01 -0.35683E-01 -0.47492E-01
 -0.47275E-01 -0.38354E-01 -0.26181E-01 -0.15296E-01 -0.77761E-02 -0.35596E-02
 -0.16489E-02 -0.10723E-02 -0.12468E-02 -0.19573E-02 -0.31855E-02 -0.49316E-02
 -0.72120E-02 -0.10244E-01 -0.14392E-01 -0.19492E-01 -0.24024E-01 -0.25339E-01
  0.11328E-01  0.19997E-01  0.26132E-01  0.27525E-01  0.24413E-01  0.18970E-01
  0.13512E-01  0.91777E-02  0.59561E-02  0.34961E-02  0.16373E-02  0.38737E-03
 -0.23955E-03 -0.18008E-03  0.88009E-03  0.37220E-02  0.96647E-02  0.20117E-01
  0.35254E-01  0.52302E-01  0.64992E-01  0.65656E-01  0.49513E-01  0.18489E-01
 -0.18488E-01 -0.49512E-01 -0.65656E-01 -0.64992E-01 -0.52302E-01 -0.35254E-01
 -0.20117E-01 -0.96648E-02 -0.37221E-02 -0.88018E-03  0.18000E-03  0.23948E-03
 -0.38742E-03 -0.16374E-02 -0.34961E-02 -0.59562E-02 -0.91777E-02 -0.13512E-01