# Generated by pySCP 
# 2024-01-22 22:15:01.692540
CRYSTAL
PRIMVEC
4.1863376 0.0 0.0
0.0 4.1863376 0.0
0.0 0.0 4.1863376
CONVVEC
4.1863376 0.0 0.0
0.0 4.1863376 0.0
0.0 0.0 4.1863376
PRIMCOORD
8 1
O 0.0 0.0 0.0
O 0.0 2.0931688 2.0931688
O 2.0931688 0.0 2.0931688
O 2.0931688 2.0931688 0.0
Ni 0.0 0.0 2.0931688
Ni 2.0931688 0.0 0.0
Ni 0.0 2.0931688 0.0
Ni 2.0931688 2.0931688 2.0931688
BEGIN_BLOCK_DATAGRID_3D
3D_field
BEGIN_DATAGRID_3D_UNKNOWN
45 45 45
-0.09303 -0.09303 -0.09303
4.0933079 0.0 0.0
0.0 4.0933079 0.0
0.0 0.0 4.0933079
-0.0 3.0377881e-05 0.000118867442 0.000216009682 0.000264910477 0.000244616325
0.000173876963 8.0949165e-05 -2.0518288e-05 -0.000129354657 -0.000243764652 -0.000356452433
-0.000457325038 -0.000533099839 -0.000559622557 -0.000491208392 -0.000261035911 0.000185824007
0.000826719296 0.001515502528 0.00203138433 0.002224424979 0.002142553859 0.002002479929
0.002002479929 0.002142553859 0.002224424979 0.00203138433 0.001515502528 0.000826719296
0.000185824007 -0.000261035911 -0.000491208392 -0.000559622557 -0.000533099839 -0.000457325038
-0.000356452433 -0.000243755583 -0.000129354657 -2.0516825e-05 8.095558e-05 0.000173876963
0.000244620903 0.00026491413 0.000216012412 3.9613651e-05 0.000154415872 0.00030681756
0.00041791094 0.000426299965 0.000331682004 0.000179876655 1.4392539e-05 -0.000150636743
-0.000319068826 -0.000491068391 -0.000657096562 -0.000803408357 -0.000913168452 -0.000956097223
-0.000871183047 -0.000559972851 7.8952788e-05 0.001065656695 0.002262079817 0.003397778208
0.004219099382 0.004648165516 0.004793707522 0.004793707522 0.004648165516 0.004219099382
0.003397778208 0.002262079817 0.001065656695 7.8952788e-05 -0.000559957516 -0.000871183047
-0.000956083276 -0.000913155283 -0.000803408357 -0.000657085086 -0.000491068391 -0.000319068826
-0.000150636743 1.4392539e-05 0.000179876655 0.000331682004 0.000426299965 0.00041791094
0.000153802984 0.00033603828 0.000516133731 0.000600249666 0.00053804347 0.000354933194
0.000117706066 -0.000123755067 -0.000358450413 -0.000593255358 -0.000827674963 -0.001050227
-0.001246401063 -0.001399098687 -0.001475172296 -0.00140151131 -0.001048469605 -0.000257918224
0.001061621865 0.002822737897 0.004736983182 0.006433587493 0.007635084626 0.008236138598
0.008236138598 0.007635084626 0.006433587493 0.004736983182 0.002822737897 0.001061621865
-0.000257918224 -0.001048469605 -0.00140151131 -0.001475172296 -0.001399098687 -0.001246387036
-0.001050227 -0.000827674963 -0.000593255358 -0.000358450413 -0.000123755067 0.000117706066
0.000354933194 0.00053804347 0.000600249666 0.00028109409 0.00048264006 0.000639436697
0.000662878681 0.000522740087 0.000262860608 -4.4292696e-05 -0.000352540549 -0.000654126397
-0.000954635749 -0.001251448276 -0.001534037749 -0.001790365506 -0.002004382068 -0.002140755973
-0.002120213797 -0.001793615506 -0.000956885421 0.000557982926 0.002744029566 0.00533780311
0.007878758748 0.009876700336 0.010966137002 0.010966137002 0.009876700336 0.007878758748
0.00533780311 0.002744029566 0.000557962355 -0.000956885421 -0.001793615506 -0.002120213797
-0.002140755973 -0.002004382068 -0.001790365506 -0.001534037749 -0.001251448276 -0.000954635749
-0.000654126397 -0.000352540549 -4.4297358e-05 0.000262852404 0.000522733 0.000662878681
0.000350018256 0.00051568313 0.000608036044 0.000558114862 0.000354183226 4.380646e-05
-0.000309972763 -0.000670819521 -0.001032445712 -0.001396632343 -0.001759489687 -0.002113345673
-0.002448340215 -0.002745369623 -0.002966870183 -0.003035768513 -0.0028081642 -0.002068131356
-0.000599091446 0.001672742452 0.004549172551 0.007549416775 0.010042989235 0.011457200565
0.011457200565 0.010042989235 0.007549416775 0.004549172551 0.001672719147 -0.000599091446
-0.002068131356 -0.0028081642 -0.003035768513 -0.002966870183 -0.002745369623 -0.002448340215
-0.002113345673 -0.001759489687 -0.001396632343 -0.001032445712 -0.000670831354 -0.000309983405
4.3797953e-05 0.000354166697 0.000558107774 0.000334075041 0.000427895896 0.000438577339
0.000319805536 7.0226433e-05 -0.00027059487 -0.000656421057 -0.001062103634 -0.001482181097
-0.001914860598 -0.002355669633 -0.002797197662 -0.003226752904 -0.003620286471 -0.003938838544
-0.004120095325 -0.004050035061 -0.003542162922 -0.002379018477 -0.000435294836 0.002176175713
0.005037928833 0.007511014516 0.008949965585 0.008949965585 0.007511014516 0.005037928833
0.002176175713 -0.000435320419 -0.002379018477 -0.003542162922 -0.004050035061 -0.004120095325
-0.003938838544 -0.003620286471 -0.003226752904 -0.002797197662 -0.002355669633 -0.001915018187
-0.001482181097 -0.001062103634 -0.000656433034 -0.00027060558 7.0214146e-05 0.000319789128
0.000257070182 0.000270530278 0.000201801314 2.1776691e-05 -0.000267126153 -0.000636442764
-0.001056146556 -0.001511292786 -0.001997819775 -0.002510844424 -0.003041856567 -0.003580114321
-0.004109002488 -0.004602527099 -0.005027276727 -0.005340642026 -0.005468367393 -0.00527696045
-0.004589861245 -0.003273151071 -0.001364597867 0.000837804294 0.002811166384 0.003984715982
0.003984715982 0.002811166384 0.000837804294 -0.001364597867 -0.003273151071 -0.004589861245
-0.00527696045 -0.005468367393 -0.005340642026 -0.005027276727 -0.004602527099 -0.004109002488
-0.003580114321 -0.003041856567 -0.002510844424 -0.001997819775 -0.001511292786 -0.001056159878
-0.000636454742 -0.000267136796 2.1764571e-05 0.000154855369 9.5898754e-05 -4.4246563e-05
-0.000283756987 -0.000618222234 -0.001027638844 -0.001494714194 -0.002013145727 -0.002578455416
-0.003180485658 -0.003804623197 -0.00443735335 -0.005064362768 -0.005665838151 -0.00621692613
-0.00668801047 -0.007032894938 -0.00716848731 -0.006977378725 -0.006354624623 -0.005296052902
-0.003973163039 -0.00273132567 -0.001973762366 -0.001973762366 -0.00273132567 -0.003973163039
-0.005296052902 -0.006354624623 -0.006977378725 -0.00716848731 -0.007032894938 -0.00668801047
-0.00621692613 -0.005665838151 -0.005064362768 -0.00443735335 -0.003804623197 -0.003180485658
-0.002578455416 -0.002013145727 -0.001494714194 -0.001027638844 -0.000618222234 -0.000283767426
4.4518978e-05 -7.7699592e-05 -0.000284201847 -0.000585284357 -0.000974184425 -0.001437480628
-0.001968027867 -0.002563725394 -0.003215947699 -0.003906867841 -0.004618821545 -0.005344070475
-0.006077553001 -0.006806853954 -0.007510192915 -0.008159088431 -0.008718632035 -0.009140200581
-0.009360616954 -0.009318877586 -0.008998859132 -0.008475768366 -0.007927003781 -0.007574267188
-0.007574267188 -0.007927003781 -0.008475768366 -0.008998859132 -0.009318877586 -0.009360616954
-0.009140200581 -0.008718632035 -0.008159088431 -0.007510192915 -0.006806853954 -0.006077553001
-0.005344070475 -0.004618821545 -0.003906867841 -0.003215947699 -0.002563725394 -0.001968027867
-0.001437495136 -0.000974197441 -0.000585295904 -7.2851932e-05 -0.00025409958 -0.000524438271
-0.000887228432 -0.001335334354 -0.001863013908 -0.002470240582 -0.00315242701 -0.003892057411
-0.004667616193 -0.005468086866 -0.006297349492 -0.007156803008 -0.008034370922 -0.008903590987
-0.009735882019 -0.010504781437 -0.011183294621 -0.011740028207 -0.012142784382 -0.012371487865
-0.012439924584 -0.012407182084 -0.01235855615 -0.01235855615 -0.012407182084 -0.012439924584
-0.012371487865 -0.012142784382 -0.011740028207 -0.011183294621 -0.010504781437 -0.009735882019
-0.008903590987 -0.008034370922 -0.007156803008 -0.006297349492 -0.005468086866 -0.004667616193
-0.003892057411 -0.00315242701 -0.002470240582 -0.001863013908 -0.001335334354 -0.000887241072
-0.00019533639 -0.000433342291 -0.000763775459 -0.001185430314 -0.001695391143 -0.002296718431
-0.00299033448 -0.003762471784 -0.004588148563 -0.005451210788 -0.006354922439 -0.007310214567
-0.008314030957 -0.009346248868 -0.010383283062 -0.011409512221 -0.012414550681 -0.013379310147
-0.014273391196 -0.015059987984 -0.015705308916 -0.016187295923 -0.016499848329 -0.016651174845
-0.016651174845 -0.016499848329 -0.016187295923 -0.015705308916 -0.015059987984 -0.014273391196
-0.013379310147 -0.012414550681 -0.011409512221 -0.010383283062 -0.009346248868 -0.008314030957
-0.007310214567 -0.006354922439 -0.005451210788 -0.004588148563 -0.003762471784 -0.00299033448
-0.002296718431 -0.001695391143 -0.001185430314 -0.000314340285 -0.000604261679 -0.000988613752
-0.001466615625 -0.002043745454 -0.002728259054 -0.003514665793 -0.004378006031 -0.005293938924
-0.006259348026 -0.007288516902 -0.008387575259 -0.009541969517 -0.010732683093 -0.011956125245
-0.013221597369 -0.014528325734 -0.015845655371 -0.017118588356 -0.018287539878 -0.019299522052
-0.020109196756 -0.020677646999 -0.020971359049 -0.020971359049 -0.020677646999 -0.020109196756
-0.019299522052 -0.018287539878 -0.017118588356 -0.015845655371 -0.014528325734 -0.013221597369
-0.011956125245 -0.010732683093 -0.009541969517 -0.008387575259 -0.007288516902 -0.006259348026
-0.005293938924 -0.004378006031 -0.003514665793 -0.002728259054 -0.002043745454 -0.001466615625
-0.000418809397 -0.000751765878 -0.001182706406 -0.00171692916 -0.002368201877 -0.003142958733
-0.004024621755 -0.004983137284 -0.006002657096 -0.007092608002 -0.008264587166 -0.00951350156
-0.010825188459 -0.01220231096 -0.013670178125 -0.015249822966 -0.016928701767 -0.01865223764
-0.020345711969 -0.021933896224 -0.023347748399 -0.024515925375 -0.025359098415 -0.02580391878
-0.02580391878 -0.025359098415 -0.024515925375 -0.023347748399 -0.021933896224 -0.020345711969
-0.01865223764 -0.016928701767 -0.015249822966 -0.013670178125 -0.01220231096 -0.010825188459
-0.00951350156 -0.008264587166 -0.007092608002 -0.006002657096 -0.004983137284 -0.004024621755
-0.003142958733 -0.002368201877 -0.00171692916 -0.00049543605 -0.000858925907 -0.001328805864
-0.001920113753 -0.002650099745 -0.003517136243 -0.004495236342 -0.005558406961 -0.006702801813
-0.007937759014 -0.009262575551 -0.010668767331 -0.012166392633 -0.013792199877 -0.015584968089
-0.01755075701 -0.019657178727 -0.021846983752 -0.024053083339 -0.026196417405 -0.028174726176
-0.029855548953 -0.031091521122 -0.031749157102 -0.031749157102 -0.031091521122 -0.029855548953
-0.028174726176 -0.026196417405 -0.024053083339 -0.021846983752 -0.019657178727 -0.01755075701
-0.015584968089 -0.013792199877 -0.012166392633 -0.010668767331 -0.009262575551 -0.007937759014
-0.006702801813 -0.005558406961 -0.004495236342 -0.003517136243 -0.002650099745 -0.001920113753
-0.000520412634 -0.000896277513 -0.001394991153 -0.002042567478 -0.002853669667 -0.003814653535
-0.004895475464 -0.006081336201 -0.007373860155 -0.008770670502 -0.010259517255 -0.011850423761
-0.013591904839 -0.015542546614 -0.017728706734 -0.020140371872 -0.022759364895 -0.02556619161
-0.028512095087 -0.031480004248 -0.034283899852 -0.036691889011 -0.038466494642 -0.039410776495
-0.039410776495 -0.038466494642 -0.036691889011 -0.034283899852 -0.031480004248 -0.028512095087
-0.02556619161 -0.022759364895 -0.020140371872 -0.017728706734 -0.015542546614 -0.013591904839
-0.011850423761 -0.010259517255 -0.008770670502 -0.007373860155 -0.006081336201 -0.004895475464
-0.003814653535 -0.002853669667 -0.002042567478 -0.000448471127 -0.000804325837 -0.001310776922
-0.002008069342 -0.002905602749 -0.003975803072 -0.005185655409 -0.006524692681 -0.007989239815
-0.009563202728 -0.011241036243 -0.013068372209 -0.015123041183 -0.017459730218 -0.020091323023
-0.023036607321 -0.02634586967 -0.030043654158 -0.034047395918 -0.038140759114 -0.042017199865
-0.045338756319 -0.047780777959 -0.049077635453 -0.049077635453 -0.047780777959 -0.045338756319
-0.042017199865 -0.038140759114 -0.034047395918 -0.030043654158 -0.02634586967 -0.023036607321
-0.020091323023 -0.017459730218 -0.015123041183 -0.013068372209 -0.011241036243 -0.009563202728
-0.007989239815 -0.006524692681 -0.005185655409 -0.003975803072 -0.002905602749 -0.002008069342
-0.000213866429 -0.000487409619 -0.000951153508 -0.001673495636 -0.002667532258 -0.003891246894
-0.005293379636 -0.006842824207 -0.00851386218 -0.010288500828 -0.012195563837 -0.014320110801
-0.016746177866 -0.019510649232 -0.022654722149 -0.026288894873 -0.030543677789 -0.035429996505
-0.040762519305 -0.046213635079 -0.051389736516 -0.055859106578 -0.059179365835 -0.060953327732
-0.060953327732 -0.059179365835 -0.055859106578 -0.051389736516 -0.046213635079 -0.040762519305
-0.035429996505 -0.030543677789 -0.026288894873 -0.022654722149 -0.019510649232 -0.016746177866
-0.014320110801 -0.012195563837 -0.010288500828 -0.00851386218 -0.006842824207 -0.005293379636
-0.003891246894 -0.002667532258 -0.001673495636 0.000236558113 0.000151920394 -0.00016461067
-0.000843627541 -0.00193290543 -0.003381926836 -0.005090076373 -0.006954326703 -0.008899194953
-0.010918838353 -0.013102390872 -0.015574278731 -0.01840604344 -0.021637797359 -0.025398752888
-0.029920023503 -0.035359299359 -0.041639799866 -0.048488403741 -0.055554391383 -0.062400747488
-0.068423574023 -0.072924660665 -0.075324096524 -0.075324096524 -0.072924660665 -0.068423574023
-0.062400747488 -0.055554391383 -0.048488403741 -0.041639799866 -0.035359299359 -0.029920023503
-0.025398752888 -0.021637797359 -0.01840604344 -0.015574278731 -0.013102390872 -0.010918838353
-0.008898884378 -0.006954326703 -0.005090076373 -0.003381926836 -0.00193290543 -0.000843607587
0.000878006592 0.001129646117 0.001132880706 0.000638473495 -0.000498511561 -0.002243531786
-0.004408349007 -0.006745963416 -0.009081834961 -0.011422070542 -0.013930903381 -0.016776051983
-0.020028141455 -0.023775708124 -0.028274982513 -0.033847574227 -0.040606194704 -0.04839618976
-0.056981906045 -0.066054364081 -0.074963667202 -0.082654800091 -0.088105414479 -0.090845467637
-0.090845467637 -0.088105414479 -0.082654800091 -0.074963667202 -0.06604884898 -0.056981906045
-0.048395668777 -0.040606194704 -0.033847574227 -0.028274982513 -0.023775708124 -0.020028141455
-0.016776051983 -0.013930903381 -0.011421726804 -0.009081834961 -0.006745963416 -0.004408349007
-0.002243531786 -0.000498488826 0.000638473495 0.00156234452 0.002304326937 0.002847573593
0.002754998933 0.00169448575 -0.000366937046 -0.003128788411 -0.006123007181 -0.009006425148
-0.011766326724 -0.0146442411 -0.017866638095 -0.021540233848 -0.025846819886 -0.031168751915
-0.037855616767 -0.045956319704 -0.055345902038 -0.065927516759 -0.077220837973 -0.087793188965
-0.09572062889 -0.100051599024 -0.101577438677 -0.101577438677 -0.100051599024 -0.09572062889
-0.087793188965 -0.077220837973 -0.065927516759 -0.055345902038 -0.045956319704 -0.037855616767
-0.031168751915 -0.025846819886 -0.021540233848 -0.017866638095 -0.0146442411 -0.011766326724
-0.009006425148 -0.006123007181 -0.003128788411 -0.000366911463 0.001694509054 0.002754998933
0.00206752833 0.003404682507 0.004689183736 0.005238584239 0.004441023039 0.002125227845
-0.001299744451 -0.005090206901 -0.008662278427 -0.011935599013 -0.015212584299 -0.018797374046
-0.0228779949 -0.027753358371 -0.033897288319 -0.04164182075 -0.051021802215 -0.06206235456
-0.074687713502 -0.0876255123 -0.097784017296 -0.102079443366 -0.100715837475 -0.097861152453
-0.097861152453 -0.100715837475 -0.102079443366 -0.097784017296 -0.0876255123 -0.074687713502
-0.06206235456 -0.051021802215 -0.04164182075 -0.033897288319 -0.027753358371 -0.0228779949
-0.018797374046 -0.015212584299 -0.011935599013 -0.008662278427 -0.005089897823 -0.001299715981
0.002125227845 0.004441023039 0.005238584239 0.002244269305 0.004180871466 0.006295636474
0.007641709964 0.007274418848 0.004827485715 0.000787831827 -0.003817309682 -0.008127495527
-0.011949555624 -0.015619443788 -0.019530170937 -0.023976057202 -0.029370024684 -0.036236150022
-0.044878571149 -0.055383323203 -0.067952337288 -0.08220282188 -0.095338780303 -0.101839397643
-0.097525740016 -0.085130468795 -0.074397932233 -0.074397932233 -0.085130468795 -0.097525740016
-0.101839397643 -0.095338780303 -0.08220282188 -0.067952337288 -0.055383323203 -0.044878571149
-0.036236150022 -0.029370024684 -0.023976057202 -0.019530170937 -0.015619443788 -0.011949191309
-0.008127495527 -0.003817309682 0.000787860713 0.004827485715 0.007274418848 0.007641709964
0.002145061603 0.004566118218 0.007411545135 0.00950796254 0.009606199837 0.00714268078
0.00264281665 -0.002633328256 -0.00757705665 -0.011873769268 -0.015870495002 -0.02003621932
-0.024764835033 -0.030556856151 -0.037958584837 -0.047254689229 -0.058617604787 -0.072336423024
-0.087498309313 -0.099457856225 -0.100206313845 -0.084834577231 -0.05923526612 -0.03935292158
-0.03935292158 -0.05923526612 -0.084834577231 -0.100206313845 -0.099457856225 -0.087498309313
-0.072336423024 -0.058617604787 -0.047254689229 -0.037958584837 -0.030556856151 -0.024764835033
-0.02003621932 -0.015870495002 -0.011873769268 -0.00757705665 -0.002633328256 0.00264281665
0.00714268078 0.009606199837 0.00950796254 0.001993654961 0.004684330472 0.00795937912
0.010515498142 0.010919360142 0.008481530065 0.003739994163 -0.001914774755 -0.007226404316
-0.011801474788 -0.015986679265 -0.020294700297 -0.0251793813 -0.031188619085 -0.038873908655
-0.048515494855 -0.060339776508 -0.074670818378 -0.090142140388 -0.100843230241 -0.097178130762
-0.07389591353 -0.039131760316 -0.012990989699 -0.012990989699 -0.039131760316 -0.07389591353
-0.097172032354 -0.100843230241 -0.090142140388 -0.074670818378 -0.060339776508 -0.048515494855
-0.038873908655 -0.031188619085 -0.0251793813 -0.020294700297 -0.015986679265 -0.011801474788
-0.007226404316 -0.001914774755 0.003739994163 0.008481530065 0.010919360142 0.010515498142
0.001993654961 0.004684330472 0.00795937912 0.010515498142 0.010919360142 0.008481530065
0.003739994163 -0.001914806571 -0.007226404316 -0.011801474788 -0.015986679265 -0.020294700297
-0.0251793813 -0.031188619085 -0.038873908655 -0.048515494855 -0.060339776508 -0.074670818378
-0.090142140388 -0.100843230241 -0.097172032354 -0.07389591353 -0.039131133796 -0.012990989699
-0.012990989699 -0.039131133796 -0.07389591353 -0.097172032354 -0.100843230241 -0.090142140388
-0.074670818378 -0.060339776508 -0.048515494855 -0.038873908655 -0.031188619085 -0.0251793813
-0.020294700297 -0.015986679265 -0.011801474788 -0.007226404316 -0.001914806571 0.003739994163
0.008481530065 0.010919360142 0.010515498142 0.002145061603 0.004566295426 0.007411545135
0.00950796254 0.009606199837 0.00714268078 0.002642758317 -0.002633359919 -0.00757705665
-0.011873769268 -0.015870495002 -0.02003621932 -0.024764835033 -0.030556856151 -0.037958584837
-0.047254689229 -0.058617604787 -0.072336423024 -0.087498309313 -0.099457856225 -0.100206313845
-0.084834577231 -0.059234642984 -0.03935229506 -0.03935229506 -0.059234642984 -0.084834577231
-0.100206313845 -0.099457856225 -0.087498309313 -0.072336423024 -0.058617604787 -0.047254689229
-0.037958584837 -0.030556856151 -0.024764835033 -0.02003621932 -0.015870495002 -0.011873769268
-0.00757705665 -0.002633359919 0.002642758317 0.00714268078 0.009606199837 0.00950796254
0.002244269305 0.004180871466 0.006295832985 0.007641709964 0.007274177622 0.004827485715
0.000787774055 -0.003817309682 -0.008127495527 -0.011949555624 -0.015619443788 -0.019530170937
-0.023976057202 -0.029370024684 -0.036236150022 -0.044878571149 -0.055383323203 -0.067952337288
-0.08220282188 -0.095338780303 -0.101839397643 -0.097525740016 -0.085130468795 -0.074397932233
-0.074397932233 -0.085130468795 -0.097525740016 -0.101839397643 -0.095338780303 -0.08220282188
-0.067952337288 -0.055383323203 -0.044878571149 -0.036236150022 -0.029370024684 -0.023976057202
-0.019530170937 -0.015619833796 -0.011949555624 -0.008127495527 -0.003817309682 0.000787774055
0.004827485715 0.007274177622 0.007641709964 0.00206752833 0.003404682507 0.004689183736
0.005238584239 0.004441023039 0.002125149584 -0.00129980139 -0.005090206901 -0.008662278427
-0.011935599013 -0.015212584299 -0.018797374046 -0.0228779949 -0.027753358371 -0.033897288319
-0.04164182075 -0.051021802215 -0.06206235456 -0.074687713502 -0.0876255123 -0.097784017296
-0.102079443366 -0.100715837475 -0.097861152453 -0.097861152453 -0.100715837475 -0.102079443366
-0.097784017296 -0.0876255123 -0.074687713502 -0.06206235456 -0.051021802215 -0.04164182075
-0.033897288319 -0.027753358371 -0.0228779949 -0.018797374046 -0.015212584299 -0.011935599013
-0.008662278427 -0.005090206901 -0.001299829859 0.002125149584 0.004440785347 0.005238584239
0.00156234452 0.002304495926 0.002847573593 0.002754998933 0.001694462445 -0.000366988212
-0.003128788411 -0.006123310345 -0.009006425148 -0.011766326724 -0.0146442411 -0.017866638095
-0.021540233848 -0.025846819886 -0.031168751915 -0.037855616767 -0.045955804042 -0.055345902038
-0.065927516759 -0.077220837973 -0.087793188965 -0.09572062889 -0.100051599024 -0.101571469503
-0.101571469503 -0.100051599024 -0.09572062889 -0.087793188965 -0.077220837973 -0.065927516759
-0.055345902038 -0.045955804042 -0.037855616767 -0.031168751915 -0.025846819886 -0.02154065989
-0.017866638095 -0.0146442411 -0.011766326724 -0.009006425148 -0.006123310345 -0.003128788411
-0.000367013795 0.00169443914 0.002754998933 0.000878021101 0.001129646117 0.001132862231
0.000638452925 -0.000498557031 -0.002243606682 -0.004408349007 -0.006745963416 -0.009082154665
-0.011422070542 -0.013930903381 -0.016776051983 -0.020028141455 -0.023775708124 -0.028274982513
-0.033847574227 -0.040606194704 -0.048395668777 -0.056981906045 -0.06604884898 -0.074963667202
-0.082654800091 -0.088105414479 -0.090845467637 -0.090845467637 -0.088105414479 -0.082654800091
-0.074963667202 -0.06604884898 -0.056981906045 -0.048395668777 -0.040606194704 -0.033847574227
-0.028274982513 -0.023775708124 -0.020028141455 -0.016776051983 -0.013930903381 -0.011422070542
-0.009082154665 -0.006745963416 -0.004408349007 -0.002243606682 -0.000498557031 0.000638432355
0.000236558113 0.000151917207 -0.000164626786 -0.000843647495 -0.001932949564 -0.003381926836
-0.005090076373 -0.006954326703 -0.008899194953 -0.010918838353 -0.013102748187 -0.015574659344
-0.01840604344 -0.021638223401 -0.025398752888 -0.029920023503 -0.035359299359 -0.041639799866
-0.048488403741 -0.055554391383 -0.062400747488 -0.068423574023 -0.072924660665 -0.075324096524
-0.075324096524 -0.072924660665 -0.068423574023 -0.062400747488 -0.055554391383 -0.048488403741
-0.041639799866 -0.035359299359 -0.029920023503 -0.025399200585 -0.021638223401 -0.01840604344
-0.015574659344 -0.013102748187 -0.010918838353 -0.008899194953 -0.006954326703 -0.005090076373
-0.003381926836 -0.001932949564 -0.000843667449 -0.000213866429 -0.000487424954 -0.000951170769
-0.001673534142 -0.002667745336 -0.003891246894 -0.005293379636 -0.006842824207 -0.008514162429
-0.010288823635 -0.012195563837 -0.014320110801 -0.016746177866 -0.019510649232 -0.022654722149
-0.026288894873 -0.030543677789 -0.035429996505 -0.040762519305 -0.046213635079 -0.051389736516
-0.055859106578 -0.059179365835 -0.060953327732 -0.060953327732 -0.059179365835 -0.055859106578
-0.051389736516 -0.046213635079 -0.040762519305 -0.035429996505 -0.030543677789 -0.026288894873
-0.022654722149 -0.019510649232 -0.016746177866 -0.014320478672 -0.012195563837 -0.010288823635
-0.008514162429 -0.006842824207 -0.005293379636 -0.003891246894 -0.002667745336 -0.001673534142
-0.000448483992 -0.000804340508 -0.001310793465 -0.002008069342 -0.002905807412 -0.003975803072
-0.005185655409 -0.006524692681 -0.007989239815 -0.009563202728 -0.011241036243 -0.013068372209
-0.015123041183 -0.017459730218 -0.020091323023 -0.023037041876 -0.02634586967 -0.030043654158
-0.034047395918 -0.038140759114 -0.042017199865 -0.045338756319 -0.047780259645 -0.049077635453
-0.049077635453 -0.047780777959 -0.045338756319 -0.042017199865 -0.038140759114 -0.034047395918
-0.030043654158 -0.02634586967 -0.023037041876 -0.020091323023 -0.017459730218 -0.015123041183
-0.013068372209 -0.011241036243 -0.009563202728 -0.007989239815 -0.006524692681 -0.005185655409
-0.003975803072 -0.002905807412 -0.002008069342 -0.00052042483 -0.00089629146 -0.001395006912
-0.002042567478 -0.002853669667 -0.003814653535 -0.004895710823 -0.006081336201 -0.007373860155
-0.008770670502 -0.010259517255 -0.011850423761 -0.013591904839 -0.015542546614 -0.017728706734
-0.020140371872 -0.022759364895 -0.02556619161 -0.028512095087 -0.031480004248 -0.034283899852
-0.036691889011 -0.038466494642 -0.039410278934 -0.039410278934 -0.038466494642 -0.036691889011
-0.034283899852 -0.031480004248 -0.028512095087 -0.025566639307 -0.022759364895 -0.020140371872
-0.017728706734 -0.015542546614 -0.013591904839 -0.011850423761 -0.010259517255 -0.008770670502
-0.007373860155 -0.006081336201 -0.004895710823 -0.003814653535 -0.002853669667 -0.002042567478
-0.00049543605 -0.000858925907 -0.001328820782 -0.001920113753 -0.002650099745 -0.003517136243
-0.004495236342 -0.005558406961 -0.006702801813 -0.007937759014 -0.009262575551 -0.010668767331
-0.012166392633 -0.013792560674 -0.015584968089 -0.017551152779 -0.019657178727 -0.021846983752
-0.024053083339 -0.026196417405 -0.028174726176 -0.029855548953 -0.031091521122 -0.031749157102
-0.031749157102 -0.031091521122 -0.029855548953 -0.028174726176 -0.026196867337 -0.024053083339
-0.021846983752 -0.019657178727 -0.017551152779 -0.015584968089 -0.013792560674 -0.012166392633
-0.010668767331 -0.009262575551 -0.007937759014 -0.006702801813 -0.005558406961 -0.004495236342
-0.003517136243 -0.002650099745 -0.001920113753 -0.000418809397 -0.000751765878 -0.001182706406
-0.00171692916 -0.002368201877 -0.003142958733 -0.004024621755 -0.004983137284 -0.006002657096
-0.007092608002 -0.008264587166 -0.009513807667 -0.010825188459 -0.01220231096 -0.013670178125
-0.015249822966 -0.016928701767 -0.01865223764 -0.020345711969 -0.021933896224 -0.023347748399
-0.024515925375 -0.025359098415 -0.02580391878 -0.02580391878 -0.025359098415 -0.024515925375
-0.023347748399 -0.021933896224 -0.020345711969 -0.01865223764 -0.016928701767 -0.015249822966
-0.013670178125 -0.01220231096 -0.010825188459 -0.009513807667 -0.008264587166 -0.007092608002
-0.006002657096 -0.004983137284 -0.004024621755 -0.003142958733 -0.002368201877 -0.00171692916
-0.000314340285 -0.000604250203 -0.00098860066 -0.001466600872 -0.002043745454 -0.002728259054
-0.003514665793 -0.004378006031 -0.005293938924 -0.006259348026 -0.007288516902 -0.008387575259
-0.009541969517 -0.010732683093 -0.011956125245 -0.013221597369 -0.014528325734 -0.015845655371
-0.017118588356 -0.018287539878 -0.019299522052 -0.020109612424 -0.020677646999 -0.020971780906
-0.020971780906 -0.020677646999 -0.020109612424 -0.019299522052 -0.018287539878 -0.017118588356
-0.015845655371 -0.014528325734 -0.013221597369 -0.011956125245 -0.010732683093 -0.009541969517
-0.008387575259 -0.007288516902 -0.006259348026 -0.005293938924 -0.004378006031 -0.003514665793
-0.002728259054 -0.002043745454 -0.001466600872 -0.000195318252 -0.000433321142 -0.000763751213
-0.001185416603 -0.001695391143 -0.002296718431 -0.00299033448 -0.003762471784 -0.004588148563
-0.005451210788 -0.006354922439 -0.007310214567 -0.008314318421 -0.009346552032 -0.010383283062
-0.01140984452 -0.012414550681 -0.013379310147 -0.014273391196 -0.015059987984 -0.015705308916
-0.016187295923 -0.016500242167 -0.016651174845 -0.016651174845 -0.016500242167 -0.016187295923
-0.015705308916 -0.015059987984 -0.014273391196 -0.013379310147 -0.012414550681 -0.01140984452
-0.010383283062 -0.009346552032 -0.008314318421 -0.007310214567 -0.006354922439 -0.005451210788
-0.004588148563 -0.003762471784 -0.00299033448 -0.002296718431 -0.001695391143 -0.001185416603
-7.2830602e-05 -0.000254070645 -0.000524416021 -0.000887203153 -0.001335305982 -0.001863013908
-0.002470240582 -0.00315242701 -0.003892057411 -0.004667616193 -0.005468324557 -0.006297349492
-0.007157071606 -0.008034370922 -0.008903888349 -0.009735882019 -0.010504781437 -0.011183294621
-0.011740028207 -0.012142784382 -0.012371487865 -0.012439924584 -0.012407182084 -0.01235855615
-0.01235855615 -0.012407182084 -0.012439924584 -0.012371487865 -0.012142784382 -0.011740028207
-0.011183294621 -0.010504781437 -0.009735882019 -0.008903888349 -0.008034370922 -0.007157071606
-0.006297349492 -0.005468324557 -0.004667616193 -0.003892057411 -0.00315242701 -0.002470240582
-0.001863013908 -0.001335305982 -0.000887203153 4.4548248e-05 -7.7663078e-05 -0.000284161428
-0.000585249717 -0.000974145376 -0.001437451611 -0.001968027867 -0.002563725394 -0.003215947699
-0.003906867841 -0.004619042214 -0.005344070475 -0.006077553001 -0.006806853954 -0.007510192915
-0.008159088431 -0.008718632035 -0.009140200581 -0.009360616954 -0.009318877586 -0.008998859132
-0.008475768366 -0.007927003781 -0.007574267188 -0.007574267188 -0.007927003781 -0.008475768366
-0.008998859132 -0.009318877586 -0.009360616954 -0.009140200581 -0.008718632035 -0.008159088431
-0.007510469452 -0.006807117377 -0.006077553001 -0.005344070475 -0.004619042214 -0.003906867841
-0.003215947699 -0.002563725394 -0.001968027867 -0.001437451611 -0.000974145376 -0.00058523817
0.000154893855 9.5945112e-05 -4.419487e-05 -0.000283704791 -0.000618174903 -0.001027599107
-0.001494714194 -0.002013145727 -0.002578455416 -0.003180485658 -0.003804623197 -0.00443735335
-0.005064362768 -0.005665838151 -0.00621692613 -0.00668801047 -0.007032894938 -0.007168774773
-0.006977378725 -0.006354624623 -0.005296052902 -0.003973163039 -0.002731357333 -0.001973794182
-0.001973794182 -0.002731357333 -0.003973163039 -0.005296052902 -0.006354624623 -0.006977378725
-0.007168774773 -0.007032894938 -0.00668801047 -0.00621692613 -0.005665838151 -0.005064362768
-0.00443735335 -0.003804623197 -0.003180485658 -0.002578455416 -0.002013145727 -0.001494714194
-0.001027585862 -0.00061816307 -0.000283694352 0.00025710868 0.000270591011 0.000201857479
2.1838223e-05 -0.000267072941 -0.000636394855 -0.001056119911 -0.001511292786 -0.001997819775
-0.002510844424 -0.003041856567 -0.003580114321 -0.004109002488 -0.004602527099 -0.005027276727
-0.005340888037 -0.005468367393 -0.00527696045 -0.004589861245 -0.003273151071 -0.001364626336
0.000837775408 0.002811166384 0.003984715982 0.003984715982 0.002811166384 0.000837804294