# Generated by pySCP 
# 2024-01-22 22:15:05.428991
CRYSTAL
PRIMVEC
4.1863376 0.0 0.0
0.0 4.1863376 0.0
0.0 0.0 4.1863376
CONVVEC
4.1863376 0.0 0.0
0.0 4.1863376 0.0
0.0 0.0 4.1863376
PRIMCOORD
8 1
O 0.0 0.0 0.0
O 0.0 2.0931688 2.0931688
O 2.0931688 0.0 2.0931688
O 2.0931688 2.0931688 0.0
Ni 0.0 0.0 2.0931688
Ni 2.0931688 0.0 0.0
Ni 0.0 2.0931688 0.0
Ni 2.0931688 2.0931688 2.0931688
BEGIN_BLOCK_DATAGRID_3D
3D_field
BEGIN_DATAGRID_3D_UNKNOWN
45 45 45
-0.09303 -0.09303 -0.09303
4.0933079 0.0 0.0
0.0 4.0933079 0.0
0.0 0.0 4.0933079
0.009467296334 0.006383853914 0.002544302344 -0.00066743343 -0.002470340119 -0.002974966634
-0.002771823248 -0.00236657477 -0.001961852616 -0.001579103749 -0.001219785152 -0.000899155659
-0.000616449548 -0.000349779796 -6.613935e-05 0.000284268521 0.000763113194 0.001386859279
0.002042734599 0.002470678676 0.002390126892 0.001731191308 0.000786636351 9.8176961e-05
9.8178123e-05 0.000786636351 0.001731191308 0.002390126892 0.002470678676 0.002042734599
0.001386859279 0.000763113194 0.000284268521 -6.6129142e-05 -0.000349757603 -0.000616449548
-0.000899130203 -0.001219758215 -0.001579075433 -0.001961823022 -0.002366543999 -0.00277175955
-0.002974835309 -0.002470104078 -0.000667088235 0.007041414776 0.003538692013 -0.000337086421
-0.00318922652 -0.004393283419 -0.004275292739 -0.003576376932 -0.002839051279 -0.00223044944
-0.00172640882 -0.001301268306 -0.000956665671 -0.000681673401 -0.000448660844 -0.000230651573
1.581088e-06 0.000284105103 0.000631781849 0.000992276945 0.001234893692 0.001214302915
0.000889066095 0.000406889189 5.0971473e-05 5.0969048e-05 0.000406889189 0.000889066095
0.001214302915 0.001234893692 0.000992251005 0.000631766688 0.000284105103 1.593614e-06
-0.000230651573 -0.000448637778 -0.000681648604 -0.000956639251 -0.00130124037 -0.001726379477
-0.00223044944 -0.002839083113 -0.003576376932 -0.004275631833 -0.004393283419 -0.003189262113
0.00338201163 -9.5738252e-05 -0.003482401519 -0.005574989463 -0.006002898371 -0.005269213717
-0.004158184937 -0.003169489365 -0.002410346629 -0.001819314501 -0.001351949395 -0.000996430182
-0.000732700968 -0.000534882279 -0.000391605084 -0.000302087178 -0.000260765266 -0.000253516287
-0.00025905403 -0.000250424137 -0.000207118266 -0.000132619003 -5.4869894e-05 -6.495702e-06
-6.501775e-06 -5.4888833e-05 -0.000132644156 -0.000207153274 -0.000250457634 -0.000259067547
-0.000253516287 -0.000260747282 -0.000302067096 -0.000391583005 -0.000534858311 -0.00073267522
-0.000996402769 -0.001351949395 -0.001819314501 -0.002410378345 -0.003169588134 -0.004158525131
-0.005269563807 -0.006003257332 -0.005575356311 -0.000171041988 -0.003185461449 -0.005751523892
-0.006983034963 -0.006758868034 -0.005648524207 -0.004358356179 -0.003279360279 -0.002460317986
-0.001828772733 -0.00134171996 -0.000983578521 -0.00073244024 -0.000569797557 -0.000499504918
-0.000541084597 -0.000710330252 -0.000994067908 -0.001312978316 -0.001509458419 -0.001419360482
-0.001008632897 -0.000452349516 -5.6058489e-05 -5.6066407e-05 -0.000452349516 -0.001008698478
-0.001419451735 -0.001509458419 -0.001312978316 -0.000994051462 -0.000710311534 -0.000541042819
-0.000499459016 -0.000569747761 -0.000732413514 -0.000983550088 -0.00134171996 -0.001828804209
-0.002460383616 -0.003279496414 -0.004358707546 -0.005648885481 -0.006759608245 -0.006983790784
-0.00261764109 -0.00490816419 -0.006604728057 -0.007147108784 -0.006579998074 -0.005415895845
-0.004192597825 -0.003170682987 -0.00236496096 -0.001726246693 -0.001235455578 -0.000884884577
-0.00065571699 -0.000534855133 -0.00053013027 -0.000663234936 -0.000955397967 -0.001396164725
-0.001883314047 -0.002194566283 -0.002086018417 -0.00149557078 -0.000675073081 -8.3958467e-05
-8.3965348e-05 -0.000675114282 -0.00149557078 -0.002086113535 -0.002194566283 -0.001883314047
-0.001396130483 -0.000955359016 -0.000663169775 -0.000530082573 -0.000534803426 -0.000655661529
-0.000884855099 -0.001235455578 -0.001726279271 -0.002365062762 -0.003170823642 -0.004192960538
-0.005416641066 -0.00658076084 -0.007147886954 -0.003798487672 -0.00533825052 -0.006321822627
-0.006448932375 -0.00582607975 -0.004827626325 -0.00379879294 -0.002892958591 -0.002127121774
-0.001499219408 -0.001022369634 -0.000697247616 -0.000505430834 -0.000432277212 -0.000478311629
-0.000653524499 -0.000971770548 -0.001425579148 -0.001922222443 -0.002244177485 -0.002141626868
-0.001542132261 -0.000698568827 -8.7053581e-05 -8.7057886e-05 -0.000698611773 -0.001542132261
-0.002141626868 -0.002244177485 -0.00192206974 -0.001425543517 -0.000971709787 -0.00065347935
-0.000478262091 -0.000432223549 -0.000505402077 -0.000697217072 -0.001022337443 -0.001499253107
-0.002127226985 -0.002893140137 -0.003799167132 -0.004828010385 -0.005826865254 -0.006449733037
-0.004172260772 -0.005093871465 -0.005581330913 -0.005501463436 -0.004952647056 -0.004158273448
-0.003306786717 -0.00249427082 -0.001767615859 -0.00116940437 -0.00072978973 -0.00044654317
-0.000297180449 -0.000264529929 -0.000341386031 -0.000523720823 -0.000811064032 -0.001193099153
-0.001598891922 -0.001859241727 -0.001772886776 -0.001278103205 -0.000579910935 -7.2342641e-05
-7.2342641e-05 -0.000579910935 -0.001278103205 -0.001772886776 -0.001859241727 -0.001598891922
-0.001193062098 -0.00081100088 -0.000523650481 -0.000341308905 -0.000264457576 -0.000297117865
-0.000446479916 -0.00072978973 -0.001169439203 -0.001767688298 -0.00249442068 -0.003307018171
-0.004158669022 -0.004953051222 -0.005501875038 -0.004252509294 -0.004728269646 -0.004887975922
-0.004691455405 -0.004203094799 -0.003529771736 -0.002770327808 -0.002010700157 -0.001329762679
-0.00078630663 -0.000400027126 -0.000157370768 -3.8079207e-05 -3.1485145e-05 -0.000129087078
-0.000314888509 -0.000569846963 -0.000870949672 -0.001163827134 -0.001337315945 -0.00126284856
-0.000905227172 -0.000409653826 -5.1055593e-05 -5.105248e-05 -0.000409644509 -0.000905227172
-0.00126284856 -0.001337274914 -0.001163777571 -0.000870891909 -0.00056975951 -0.0003148155
-0.000129001753 -3.1398623e-05 -3.8002055e-05 -0.000157311865 -0.000399992697 -0.00078630663
-0.001329837431 -0.002010816036 -0.002770526486 -0.003530056707 -0.004203510371 -0.004691878249
-0.004280927458 -0.004443248198 -0.00437336294 -0.004076531817 -0.003582725665 -0.002934214908
-0.002201877237 -0.001483988037 -0.000868134408 -0.000393429414 -5.4437216e-05 0.000163950567
0.000263919942 0.000242772527 0.000112175775 -9.7096652e-05 -0.000346282018 -0.000596753912
-0.00080232036 -0.000899518244 -0.000827200389 -0.000581481973 -0.000260071514 -3.2242996e-05
-3.2239757e-05 -0.000260061822 -0.000581465901 -0.000827166889 -0.000899475598 -0.000802251706
-0.000596693935 -0.000346191268 -9.7005799e-05 0.000112272483 0.000242871074 0.000264012535
0.00016402837 -5.4380322e-05 -0.000393392287 -0.000868134408 -0.001484027824 -0.002201999915
-0.002934424199 -0.003583024503 -0.004076879018 -0.004289534169 -0.004217612607 -0.003972579688
-0.003571736744 -0.003021267605 -0.002346099115 -0.001624622839 -0.000960677518 -0.000418220947
1.60606e-07 0.000311687571 0.000510214171 0.000572867803 0.00049537163 0.000307395628
5.7934974e-05 -0.000203309835 -0.000431759256 -0.000586721798 -0.000633885189 -0.000556872499
-0.000376732017 -0.00016423703 -2.0110733e-05 -2.0105684e-05 -0.000164226958 -0.000376706968
-0.000556837703 -0.000633840908 -0.00058666836 -0.000431676305 -0.000203222815 5.8034321e-05
0.000307510039 0.000495495187 0.000572966801 0.000510318967 0.000311764616 2.15116e-07
-0.000418181261 -0.000960677518 -0.00162470692 -0.002346228099 -0.003021442852 -0.00357200375
-0.00427957635 -0.004020259134 -0.003631250862 -0.003121228168 -0.002488772449 -0.001774440579
-0.001071740015 -0.000465778302 2.1761176e-05 0.000410213918 0.000697607785 0.000845188781
0.00082386991 0.000654506771 0.000395256303 0.000104204402 -0.00017471181 -0.000401838856
-0.000537980812 -0.000557945339 -0.000466139756 -0.000300776592 -0.000126558816 -1.5211345e-05
-1.5207676e-05 -0.000126548361 -0.000300750596 -0.000466103655 -0.000557899416 -0.000537925417
-0.0004017744 -0.000174624143 0.000104307197 0.000395345025 0.000654634423 0.000824006171
0.000845296871 0.000697721211 0.000410332135 2.1821192e-05 -0.000465736222 -0.001071740015
-0.001774528804 -0.002488862274 -0.003121364908 -0.004270873812 -0.003853832939 -0.003334362577
-0.002706586996 -0.001982315959 -0.001233357362 -0.000554271433 1.0194901e-05 0.000472687206
0.000839350168 0.001068258378 0.001107456868 0.000957654241 0.000679472783 0.000345308361
2.588287e-06 -0.000316231697 -0.000568626526 -0.000704616243 -0.000695584245 -0.000557001692
-0.00034613054 -0.000141456622 -1.6729522e-05 -1.6726986e-05 -0.000141445785 -0.000346112579
-0.000556976756 -0.000695536683 -0.000704558898 -0.000568559838 -0.000316156157 2.689781e-06
0.000345430507 0.000679604489 0.000957794716 0.001107568208 0.001068375114 0.000839471731
0.000472813044 1.0271788e-05 -0.000554227155 -0.001233357362 -0.001982315959 -0.002706633626
-0.004256522771 -0.003697474975 -0.003047211251 -0.002295388451 -0.001485076763 -0.000714733372
-5.6583877e-05 0.000489057308 0.000938236347 0.001253518484 0.001363809771 0.001244273942
0.000947294133 0.000553758636 0.000118462724 -0.000327174582 -0.000737830256 -0.001041231089
-0.00116735158 -0.001088924921 -0.00084084107 -0.000509734342 -0.000204918694 -2.403072e-05
-2.403072e-05 -0.000204918694 -0.00050972505 -0.000840828173 -0.001088908527 -0.001167292309
-0.001041185162 -0.000737752269 -0.000327088066 0.00011857921 0.00055389432 0.000947438736
0.001244426632 0.00136396973 0.001253684916 0.00093836545 0.000489190144 -5.6479571e-05
-0.00071464085 -0.001485029742 -0.002295340808 -0.004199106552 -0.003499572376 -0.002713744936
-0.001846147169 -0.000975825491 -0.000204441104 0.000437010449 0.000973852146 0.001389192757
0.001597704675 0.001535510277 0.001234432941 0.000781480921 0.000236388221 -0.000376908381
-0.001011744344 -0.001567043354 -0.001923336016 -0.002000347119 -0.001788179337 -0.001349896007
-0.00080958921 -0.000324001832 -3.7934139e-05 -3.7936076e-05 -0.000324007625 -0.000809598809
-0.001349896007 -0.001788179337 -0.00200030635 -0.001923288655 -0.00156696298 -0.001011655238
-0.000376811173 0.000236520791 0.000781629527 0.001234589735 0.001535674402 0.001597875301
0.00138936909 0.000974033429 0.000437163504 -0.000204304009 -0.000975729464 -0.001846049947
-0.004048003111 -0.003191737816 -0.002269699618 -0.001318623841 -0.000436390758 0.000307584117
0.000928219934 0.001442746273 0.001778842923 0.001827093083 0.001565895783 0.001074086243
0.000426227997 -0.000362146386 -0.001264844325 -0.002167495788 -0.002893592042 -0.003292403671
-0.00329106078 -0.002892303749 -0.002175905104 -0.001308776185 -0.000526049487 -6.175954e-05
-6.1765532e-05 -0.000526061434 -0.001308875125 -0.002175905104 -0.002892303749 -0.00329106078
-0.003292403671 -0.002893316462 -0.002167404188 -0.001264744463 -0.000362003132 0.00042638044
0.001074287142 0.001566063888 0.001827267712 0.001779068332 0.001442977831 0.000928409367
0.00030777223 -0.000436219424 -0.001318475264 -0.003663331437 -0.002601178943 -0.001552079176
-0.00058867929 0.000216244397 0.000869541468 0.00142780101 0.001869004447 0.002066036499
0.001918939139 0.001453166842 0.000745788497 -0.000184277332 -0.001341345611 -0.002633595138
-0.003853867957 -0.004781299675 -0.005264035573 -0.005214110001 -0.004598363502 -0.003487510676
-0.002115150811 -0.000855658916 -0.000100809125 -0.000100819399 -0.000855658916 -0.002115150811
-0.003487510676 -0.004598542699 -0.005214110001 -0.005264035573 -0.004781299675 -0.003853867957
-0.002633492762 -0.001341235539 -0.000184125166 0.000745994028 0.001453381662 0.001919162131
0.0020662666 0.001869240653 0.001427994106 0.000869787129 0.000216453681 -0.000588477774
-0.002698550738 -0.00132451675 -0.000171173394 0.000667109089 0.001216724833 0.001622369378
0.001989295103 0.002246531576 0.002229330495 0.001863998445 0.001187134421 0.000209914662
-0.00111368185 -0.002749049118 -0.004497395286 -0.006095235411 -0.007333420093 -0.008040826544
-0.008029899138 -0.007157137937 -0.005480466694 -0.003351935475 -0.001365382773 -0.000161531423
-0.000161548294 -0.001365445831 -0.003351935475 -0.005480466694 -0.007157137937 -0.008029899138
-0.008041082997 -0.007333420093 -0.006095235411 -0.004497395286 -0.002748936595 -0.001113522411
0.00021009092 0.001187309753 0.001864225796 0.002229611822 0.002246820172 0.001989540695
0.001622619173 0.001216978012 0.00066731374 -0.000701460109 0.001162140019 0.002391808678
0.002896386722 0.002898565144 0.002769138438 0.002702647181 0.002599194744 0.002274347565
0.001663501445 0.000750116606 -0.000568429882 -0.002377812595 -0.004555903702 -0.006818834087
-0.008923559109 -0.010689650403 -0.011835266585 -0.011961477288 -0.010782012126 -0.008360175189
-0.005189361802 -0.002144105927 -0.000255907082 -0.000255928666 -0.002144170464 -0.005189468647
-0.008360323293 -0.010782012126 -0.011961477288 -0.011835266585 -0.010689650403 -0.008923559109
-0.006818477882 -0.004555903702 -0.002377690712 -0.000568258887 0.000750339722 0.00166373275
0.002274585936 0.002599488002 0.002702946472 0.002769442672 0.002898821959 0.002896594196
0.002444704132 0.005033911124 0.00634884259 0.006311823343 0.005435889179 0.004419996888
0.003622744769 0.002959378169 0.002231821051 0.001338021978 0.000143806735 -0.001580895395
-0.003923183971 -0.006671653497 -0.009534934054 -0.012352571984 -0.014915049977 -0.016712985715
-0.017101214382 -0.015681978864 -0.012475988257 -0.00798810638 -0.003393497932 -0.000411657344
-0.000411679373 -0.003393563793 -0.007988215403 -0.01247613935 -0.015682170548 -0.017101444838
-0.01671325284 -0.014915049977 -0.012352571984 -0.009534934054 -0.006671653497 -0.003923060042
-0.001580721623 0.000144001626 0.001338256784 0.002232062899 0.002959675544 0.003623098656
0.00442030507 0.005435889179 0.006312348235 0.006088047276 0.009648343298 0.011152764471
0.010509738401 0.008561278306 0.006416392414 0.004676511044 0.003322787944 0.002137456944
0.000929347308 -0.000590122718 -0.002757165901 -0.005632901048 -0.008962782859 -0.012536551029
-0.016281343535 -0.019864094355 -0.022512272315 -0.023437307243 -0.022167899816 -0.018427302984
-0.012355000157 -0.005443120953 -0.000673217756 -0.000673262583 -0.00544318796 -0.012356109224
-0.018427302984 -0.022167899816 -0.023437307243 -0.022512272315 -0.019864094355 -0.016281343535
-0.012536183 -0.008962782859 -0.005632901048 -0.002757033784 -0.000589939023 0.000929537553
0.002137750732 0.00332308884 0.004676868959 0.006416911666 0.008561803796 0.010509738401
0.008968140135 0.013676688593 0.015584238238 0.014508091235 0.011581297271 0.008331561365
0.005651276551 0.003624711205 0.002006938766 0.000487059007 -0.001373308249 -0.003974754098
-0.007344344584 -0.011249310965 -0.015614057237 -0.020412614662 -0.025133988643 -0.028844525522
-0.030813750972 -0.030455532528 -0.026697654577 -0.018773145307 -0.008545762496 -0.001074071836
-0.001074140029 -0.008545762496 -0.018773145307 -0.026699212654 -0.030455532528 -0.030813750972
-0.028844525522 -0.025133988643 -0.020412614662 -0.015613684711 -0.011249310965 -0.007344344584
-0.003974620514 -0.001373169001 0.000487251217 0.002007186024 0.003625014977 0.005651792555
0.008331561365 0.011581297271 0.014508091235 0.010096466278 0.015975519432 0.01850903502
0.017339081544 0.013782758569 0.009720656587 0.006322302025 0.003786739259 0.001841804774
6.1323656e-05 -0.002106477696 -0.005083340476 -0.008869591281 -0.013299726419 -0.018440268604
-0.024264997889 -0.030107904487 -0.035060806644 -0.038635091941 -0.039992270438 -0.03676828415
-0.026818267377 -0.01248534439 -0.001585387006 -0.001585455932 -0.01248534439 -0.026818267377
-0.036769858606 -0.039992270438 -0.038635091941 -0.035060806644 -0.030107904487 -0.024264997889
-0.018440268604 -0.013299726419 -0.008869163831 -0.005083340476 -0.002106384112 6.1483467e-05
0.001842004066 0.003786994231 0.006322302025 0.009720656587 0.013783291895 0.017339081544
0.009633041714 0.016486146402 0.019702430619 0.018718040453 0.014922596554 0.010431405701
0.006626775872 0.003802344566 0.001667654652 -0.000287863757 -0.002682324475 -0.005931504227
-0.01001931899 -0.014858779046 -0.020625885033 -0.02727095059 -0.034044712473 -0.040198248376
-0.045542794916 -0.048894412644 -0.04645874969 -0.034657092625 -0.016340158253 -0.002086226398
-0.00208627268 -0.016340158253 -0.034657092625 -0.04645874969 -0.048894412644 -0.045542794916
-0.040198248376 -0.034044712473 -0.02727095059 -0.020625885033 -0.014858779046 -0.01001931899
-0.005931052681 -0.002682230383 -0.000287751791 0.001667804873 0.003802549531 0.006626775872
0.010431405701 0.014922596554 0.018718040453 0.008809955262 0.016219921115 0.019890314952
0.019114719957 0.015295971151 0.010658041332 0.006697146945 0.003760970304 0.001549775435
-0.000489206339 -0.003001634659 -0.006392005656 -0.010638889985 -0.015703733946 -0.021821298124
-0.02892389675 -0.036237969399 -0.043156260029 -0.049690105649 -0.054398711228 -0.052529752725
-0.039591022109 -0.01876847049 -0.002401664568 -0.002401896815 -0.01876847049 -0.039591022109
-0.052529752725 -0.054398711228 -0.049690105649 -0.043156260029 -0.036237969399 -0.02892389675
-0.021821298124 -0.015703733946 -0.010638889985 -0.006392005656 -0.003001587485 -0.000489157531
0.001549825635 0.003761073035 0.006697146945 0.010658041332 0.015295971151 0.019114719957
0.008809955262 0.016219921115 0.019890314952 0.019114719957 0.015295971151 0.010658041332
0.006697146945 0.003761021669 0.001549825635 -0.000489206339 -0.003001587485 -0.006392005656
-0.010638889985 -0.015703733946 -0.021821298124 -0.02892389675 -0.036237969399 -0.043156260029
-0.049690105649 -0.054398711228 -0.052529752725 -0.039591022109 -0.01876847049 -0.002401896815
-0.002401664568 -0.01876847049 -0.039591022109 -0.052529752725 -0.054398711228 -0.049690105649
-0.043156260029 -0.036237969399 -0.02892389675 -0.021821298124 -0.015703733946 -0.010638889985
-0.006392005656 -0.003001587485 -0.000489206339 0.001549775435 0.003760970304 0.006697146945
0.010658041332 0.015295971151 0.019114719957 0.00963249655 0.016485601801 0.019702430619
0.018718040453 0.014922596554 0.010431405701 0.006626775872 0.00380249829 0.001667804873
-0.000287771263 -0.002682277429 -0.005931504227 -0.01001931899 -0.014858779046 -0.020625885033
-0.02727095059 -0.034044712473 -0.040198248376 -0.045542794916 -0.048894412644 -0.04645874969
-0.034657092625 -0.016340158253 -0.00208627268 -0.002086226398 -0.016340158253 -0.034657092625
-0.04645874969 -0.048894412644 -0.045542794916 -0.040198248376 -0.034044712473 -0.02727095059
-0.020625885033 -0.014858779046 -0.01001931899 -0.005931504227 -0.002682324475 -0.000287844285
0.001667704726 0.003802344566 0.006626775872 0.010431405701 0.014922596554 0.018718040453
0.010095923078 0.015975519432 0.01850903502 0.017339081544 0.013783291895 0.009720656587
0.006322302025 0.003786994231 0.001842004066 6.1468938e-05 -0.002106384112 -0.005083340476
-0.008869163831 -0.013299726419 -0.018440268604 -0.024264997889 -0.030107904487 -0.035060806644
-0.038635091941 -0.039992270438 -0.036769858606 -0.026818267377 -0.01248534439 -0.001585455932
-0.001585387006 -0.01248534439 -0.026818267377 -0.03676828415 -0.039992270438 -0.038635091941
-0.035060806644 -0.030107904487 -0.024264997889 -0.018440268604 -0.013299726419 -0.008869591281
-0.005083340476 -0.002106477696 6.1343027e-05 0.001841804774 0.003786739259 0.006322302025
0.009720129264 0.013782758569 0.017339081544 0.008967599853 0.013676149079 0.01558370061
0.014508091235 0.011581297271 0.008331561365 0.005651792555 0.003625014977 0.002007136572
0.000487251217 -0.001373169001 -0.003974620514 -0.007344344584 -0.011249310965 -0.015614057237
-0.020412614662 -0.025133988643 -0.028844525522 -0.030813750972 -0.030455532528 -0.026699212654
-0.018773145307 -0.008545762496 -0.001074140029 -0.001074071836 -0.008545762496 -0.018773145307
-0.026697654577 -0.030455532528 -0.030813750972 -0.028844525522 -0.025133988643 -0.020412614662
-0.015614057237 -0.011249310965 -0.007344344584 -0.00397470957 -0.001373308249 0.000487059007
0.002006938766 0.003624761834 0.005651276551 0.008331561365 0.011580767331 0.014508091235
0.006087510837 0.009647807785 0.011152764471 0.010509738401 0.008561803796 0.006416911666
0.004676817828 0.003323038691 0.002137701767 0.000929537553 -0.000589939023 -0.002757033784
-0.005632901048 -0.008962782859 -0.012536183 -0.016281343535 -0.019864094355 -0.022512272315
-0.023437307243 -0.022167899816 -0.018427302984 -0.012355000157 -0.00544318796 -0.000673262583
-0.000673217756 -0.005443120953 -0.012355000157 -0.018427302984 -0.022167899816 -0.023437307243
-0.022512272315 -0.019864094355 -0.016281005052 -0.012536551029 -0.008962782859 -0.005632901048
-0.002757165901 -0.000590076794 0.000929347308 0.002137505909 0.003322787944 0.004676511044
0.006416392414 0.008561278306 0.010509738401 0.002444438276 0.005033751945 0.00634884259
0.006312348235 0.005435889179 0.00442030507 0.003623048101 0.002959675544 0.002232062899
0.001338256784 0.000143988029 -0.001580721623 -0.003923060042 -0.006671653497 -0.009534934054
-0.012352571984 -0.014915049977 -0.01671325284 -0.017101444838 -0.015682170548 -0.01247613935
-0.007988215403 -0.003393563793 -0.000411679373 -0.000411657344 -0.003393497932 -0.00798810638
-0.012475988257 -0.015681978864 -0.017101214382 -0.016712985715 -0.014915049977 -0.012352571984
-0.009534934054 -0.006671653497 -0.003923142661 -0.001580851952 0.000143829397 0.001338068939
0.002231821051 0.002959427731 0.003622744769 0.004419996888 0.005435889179 0.006311823343
-0.000701565338 0.001162140019 0.002391913152 0.002896594196 0.002898821959 0.002769442672
0.002702946472 0.002599439126 0.002274585936 0.00166373275 0.000750295099 -0.000568258887
-0.002377690712 -0.004555903702 -0.006818477882 -0.008923559109 -0.010689650403 -0.011835266585
-0.011961477288 -0.010782012126 -0.008360323293 -0.005189468647 -0.002144170464 -0.000255928666
-0.000255907082 -0.002144105927 -0.005189361802 -0.008360175189 -0.010782012126 -0.011961477288
-0.011835266585 -0.010689650403 -0.008923559109 -0.006818834087 -0.004555903702 -0.002377812595
-0.000568387134 0.000750161229 0.001663547706 0.002274347565 0.002599194744 0.002702697063
0.002769189143 0.002898565144 0.002896386722 -0.002698498758 -0.001324413106 -0.000171039355
0.000667262577 0.001216978012 0.001622619173 0.001989540695 0.002246772073 0.002229564934
0.001864225796 0.001187309753 0.000210086723 -0.001113522411 -0.002748936595 -0.004497395286
-0.006095235411 -0.007333420093 -0.008041082997 -0.008029899138 -0.007157137937 -0.005480466694
-0.003351935475 -0.001365445831 -0.000161548294 -0.000161531423 -0.001365382773 -0.003351935475
-0.005480466694 -0.007157137937 -0.008029899138 -0.008040826544 -0.007333420093 -0.006095235411
-0.004497395286 -0.00274901161 -0.00111364199 0.000209935645 0.001187134421 0.001864043915
0.002229377382 0.002246579675 0.001989295103 0.001622369378 0.001216724833 0.000667109089
-0.00366322889 -0.002601076765 -0.001551926793 -0.000588528153 0.000216438732 0.000869787129
0.001427994106 0.001869240653 0.0020662666 0.001919117533 0.001453381662 0.000745952921
-0.000184129067 -0.001341235539 -0.002633492762 -0.003853867957 -0.004781299675 -0.005264035573
-0.005214110001 -0.004598542699 -0.003487510676 -0.002115150811 -0.000855658916 -0.000100819399
-0.000100809125 -0.000855658916 -0.002115150811 -0.003487510676 -0.004598363502 -0.005214110001
-0.005264035573 -0.004781299675 -0.003853867957 -0.002633561013 -0.001341345611 -0.000184261725
0.000745829603 0.001453209806 0.001918939139 0.002066082519 0.001869051688 0.00142780101
0.0008695906 0.000216264329 -0.00058867929 -0.004047902109 -0.00319163724 -0.002269599685
-0.001318475264 -0.00043623411 0.00030775776 0.000928362009 0.001442931519 0.00177902325
0.001827267712 0.001566063888 0.001074246962 0.00042638044 -0.000362003132 -0.001264744463
-0.002167404188 -0.002893316462 -0.003292403671 -0.00329106078 -0.002892303749 -0.002175905104
-0.001308875125 -0.000526061434 -6.1765532e-05 -6.175954e-05 -0.000526049487 -0.001308776185
-0.002175905104 -0.002892303749 -0.00329106078 -0.003292403671 -0.002893592042 -0.002167465254
-0.001264844325 -0.000362110573 0.000426266108 0.001074126423 0.001565895783 0.001827093083
0.001778842923 0.001442792584 0.000928219934 0.00030760341 -0.000436371177 -0.001318623841
-0.004199056882 -0.003499522948 -0.002713695858 -0.001846049947 -0.000975729464 -0.000204318192
0.00043714959 0.000974033429 0.00138936909 0.001597875301 0.001535674402 0.001234589735
0.000781629527 0.000236520791 -0.000376811173 -0.001011655238 -0.00156696298 -0.001923264975
-0.00200030635 -0.001788179337 -0.001349896007 -0.000809598809 -0.000324007625 -3.7936076e-05
-3.7934139e-05 -0.000324001832 -0.00080958921 -0.001349896007 -0.001788179337 -0.002000326734
-0.001923312336 -0.001567043354 -0.001011744344 -0.000376908381 0.000236402176 0.000781480921
0.001234432941 0.001535551308 0.001597704675 0.00138923684 0.000973897466 0.000437024363
-0.000204426922 -0.000975825491 -0.001846147169 -0.004256522771 -0.003697474975 -0.003047211251
-0.002295388451 -0.001485029742 -0.00071464085 -5.6493176e-05 0.000489145866 0.00093836545
0.001253643308 0.00136392974 0.001244426632 0.000947438736 0.00055389432 0.000118582358
-0.000327088066 -0.000737752269 -0.001041185162 -0.001167292309 -0.001088892133 -0.000840828173
-0.00050972505 -0.000204918694 -2.403072e-05 -2.403072e-05 -0.000204918694 -0.00050972505
-0.00084084107 -0.001088924921 -0.001167331823 -0.001041231089 -0.000737830256 -0.000327174582
0.000118475317 0.000553758636 0.000947294133 0.001244273942 0.001363809771 0.001253518484
0.000938236347 0.000489057308 -5.6574807e-05 -0.000714733372 -0.001485076763 -0.002295388451
-0.00427092167 -0.003853880495 -0.003334409727 -0.002706633626 -0.001982361944 -0.001233357362
-0.000554227155 1.0259261e-05 0.000472771098 0.000839471731 0.001068375114 0.001107568208
0.000957794716 0.000679604489 0.000345430507 2.693191e-06 -0.000316156157 -0.000568559838
-0.000704558898 -0.000695536683 -0.000556964288 -0.000346112579 -0.000141445785 -1.6726986e-05
-1.6729522e-05 -0.000141456622 -0.00034613054 -0.000557001692 -0.000695568391 -0.000704616243
-0.000568626526 -0.000316231697 2.59684e-06 0.000345308361 0.000679472783 0.000957654241
0.001107456868 0.001068258378 0.000839350168 0.000472687206 1.0198356e-05 -0.000554271433
-0.001233357362 -0.001982315959 -0.002706586996 -0.004279717021 -0.004020445371 -0.003631435365
-0.003121364908 -0.002488862274 -0.001774528804 -0.001071783187 -0.000465736222 2.1809761e-05
0.000410292729 0.000697683402 0.000845296871 0.000824006171 0.000654634423 0.000395374599
0.000104312607 -0.000174619273 -0.0004017744 -0.000537925417 -0.000557899416 -0.000466103655
-0.000300750596 -0.000126548361 -1.5207501e-05 -1.5211345e-05 -0.000126558816 -0.000300767927
-0.000466139756 -0.000557945339 -0.000537980812 -0.000401838856 -0.000174704504 0.000104212517
0.000395256303 0.000654538684 0.00082386991 0.000845188781 0.000697607785 0.000410213918
2.1760768e-05 -0.000465778302 -0.001071740015 -0.001774440579 -0.002488772449 -0.003121228168
-0.004289809518 -0.004217931329 -0.003972895187 -0.00357200375 -0.003021442852 -0.002346228099
-0.00162470692 -0.000960718459 -0.000418220947 2.05296e-07 0.000311757278 0.000510318967
0.000572966801 0.000495495187 0.000307510039 5.8036935e-05 -0.000203218111 -0.000431676305
-0.000586650547 -0.000633840908 -0.000556837703 -0.000376706968 -0.000164221923 -2.0105684e-05
-2.0110733e-05 -0.00016423703 -0.000376732017 -0.000556872499 -0.000633885189 -0.000586721798
-0.000431759256 -0.00020330278 5.7942817e-05 0.000307395628 0.000495402519 0.000572867803
0.000510214171 0.000311687571 1.58352e-07 -0.000418220947 -0.000960677518 -0.001624622839
-0.002346099115 -0.003021267605 -0.003571781245 -0.004281376136 -0.004443692999 -0.004373758883
-0.004076922418 -0.003583024503 -0.002934466057 -0.002202040808 -0.001484067611 -0.000868172942
-0.000393392287 -5.4387434e-05 0.000164024987 0.000264009343 0.000242874061 0.000112275246
-9.7000752e-05 -0.000346191268 -0.000596673942 -0.000802251706 -0.000899461382 -0.000827155723
-0.000581457865 -0.000260061822 -3.2239757e-05 -3.2242996e-05 -0.000260071514 -0.000581481973
-0.000827189222 -0.000899504029 -0.000802303196 -0.000596753912 -0.000346282018 -9.7089081e-05
0.000112181301 0.0002427785 0.000263923135 0.000163950567 -5.4440772e-05 -0.000393429414
-0.000868134408 -0.001483988037 -0.002201877237 -0.002934256766 -0.003582725665 -0.004076575217
-0.004253079018 -0.004729137856 -0.004888404917 -0.004691878249 -0.004203510371 -0.003530097417
-0.002770566221 -0.002010816036 -0.001329837431 -0.00078630663 -0.000399992697 -0.000157315138
-3.8002055e-05 -3.1398623e-05 -0.00012899642 -0.0003148155 -0.00056975951 -0.000870872654
-0.00116376105 -0.001337261237 -0.00126284856 -0.000905227172 -0.000409644509 -5.105248e-05
-5.1054036e-05 -0.000409649167 -0.000905227172 -0.00126284856 -0.001337302268 -0.001163810613
-0.000870930417 -0.0005698251 -0.000314888509 -0.000129081746 -3.1479377e-05 -3.8076121e-05
-0.00015737404 -0.000400027126 -0.00078630663 -0.001329800055 -0.002010700157 -0.002770367543
-0.003529812446 -0.004203094799 -0.004691455405 -0.004173073377 -0.005094718045 -0.005582166817
-0.005501875038 -0.004953051222 -0.004158669022 -0.003307056747 -0.002494458145 -0.001767724518
-0.001169439203 -0.00072978973 -0.000446479916 -0.000297117865 -0.000264454793 -0.000341308905
-0.000523650481 -0.00081100088 -0.00119304357 -0.001598891922 -0.001859241727 -0.001772886776
-0.001278103205 -0.000579910935 -7.2342641e-05 -7.2342641e-05 -0.000579910935 -0.001278103205
-0.001772886776 -0.001859241727 -0.001598891922 -0.001193099153 -0.000811064032 -0.000523720823
-0.000341386031 -0.000264527147 -0.000297180449 -0.00044654317 -0.000729823034 -0.001169439203
-0.001767652079 -0.002494308285 -0.003306825293 -0.004158273448 -0.004952647056 -0.005501463436
-0.00379948858 -0.005339075342 -0.006323043213 -0.006450133368 -0.005826865254 -0.004828010385