# Generated by pySCP 
# 2024-01-22 22:14:54.687669
CRYSTAL
PRIMVEC
4.1863376 0.0 0.0
0.0 4.1863376 0.0
0.0 0.0 4.1863376
CONVVEC
4.1863376 0.0 0.0
0.0 4.1863376 0.0
0.0 0.0 4.1863376
PRIMCOORD
8 1
O 0.0 0.0 0.0
O 0.0 2.0931688 2.0931688
O 2.0931688 0.0 2.0931688
O 2.0931688 2.0931688 0.0
Ni 0.0 0.0 2.0931688
Ni 2.0931688 0.0 0.0
Ni 0.0 2.0931688 0.0
Ni 2.0931688 2.0931688 2.0931688
BEGIN_BLOCK_DATAGRID_3D
3D_field
BEGIN_DATAGRID_3D_UNKNOWN
45 45 45
-0.09303 -0.09303 -0.09303
4.0933079 0.0 0.0
0.0 4.0933079 0.0
0.0 0.0 4.0933079
-0.009839855349 -0.006660726679 -0.002660323996 0.000710513694 0.002615505478 0.003151926818
0.002931960297 0.002490549933 0.002047970171 0.001631431895 0.001243624338 0.000900581194
0.00060181481 0.000324591035 3.4756997e-05 -0.00031857807 -0.000797818255 -0.001419938297
-0.002072352073 -0.002495332047 -0.002408473487 -0.001742459828 -0.000791334038 -9.8740542e-05
-9.8740542e-05 -0.000791334038 -0.001742459828 -0.002408473487 -0.002495332047 -0.002072352073
-0.001419938297 -0.000797818255 -0.000318559524 3.4767205e-05 0.000324613227 0.000601838684
0.00090060665 0.001243624338 0.001631431895 0.002047940578 0.002490519162 0.002931928447
0.003151893987 0.002615438038 0.000710444655 -0.006315711653 -0.002856621831 0.00092139604
0.003637213786 0.004691771257 0.004438158697 0.003634124491 0.002825529129 0.002171593005
0.001638504246 0.00119587857 0.000846873997 0.000585597472 0.000390942807 0.000247203646
0.000147154679 8.2221559e-05 4.0788595e-05 1.2546081e-05 -9.101698e-06 -2.4260238e-05
-2.6937835e-05 -1.5577428e-05 -2.177061e-06 -2.177757e-06 -1.5579514e-05 -2.6940721e-05
-2.4263452e-05 -9.103031e-06 1.2547323e-05 4.0792949e-05 8.2228174e-05 0.000147163918
0.000247203646 0.000390964892 0.000585621213 0.000846873997 0.00119587857 0.001638504246
0.002171563667 0.00282549865 0.003634124491 0.004438158697 0.004691771257 0.003636872999
-0.002023455672 0.001257466488 0.004318622181 0.006048332692 0.006165255494 0.005216335138
0.003980770417 0.002927517122 0.002134089891 0.001522843311 0.00104809319 0.000706449328
0.00048862965 0.000378620558 0.000382536487 0.000537616316 0.000888838784 0.001431289052
0.002034702694 0.002427694614 0.002327702763 0.001672360377 0.000754734444 9.382259e-05
9.3820275e-05 0.000754734444 0.001672302847 0.002327702763 0.002427694614 0.002034702694
0.001431289052 0.000888855237 0.000537634688 0.000382536487 0.000378620558 0.00048862965
0.000706449328 0.00104809319 0.001522843311 0.002134089891 0.002927517122 0.003980770417
0.005216335138 0.006165255494 0.006048332692 0.001478916494 0.004175656377 0.00629568973
0.007085199518 0.006531418471 0.005230929511 0.003854077261 0.002739409064 0.001902287265
0.001261559853 0.000781338411 0.000459304698 0.000284741485 0.000247127795 0.000367306352
0.000708406729 0.001348063648 0.002288855855 0.0033279254 0.004020234585 0.003887715571
0.002811182925 0.001274454242 0.000158801114 0.000158801114 0.001274419775 0.002811125717
0.003887715571 0.004020133061 0.0033279254 0.002288855855 0.001348063648 0.000708424951
0.000367326374 0.000247149515 0.000284741485 0.000459304698 0.000781338411 0.001261532395
0.001902287265 0.002739379375 0.003854077261 0.005230929511 0.006531095613 0.007085199518
0.003342141559 0.005262833317 0.006516326613 0.006674767448 0.005862860395 0.004585251564
0.003324865213 0.002293076558 0.001486262896 0.0008568337 0.000393796181 9.8862588e-05
-3.8344648e-05 -2.3565924e-05 0.000167007453 0.000595330238 0.001340272668 0.002408900321
0.003589334805 0.004396135082 0.004290795895 0.003122797283 0.00142176784 0.000177541023
0.000177541023 0.00142176784 0.003122797283 0.004290795895 0.004396135082 0.003589334805
0.002408900321 0.001340272668 0.000595330238 0.000167021305 -2.3553052e-05 -3.8335444e-05
9.8872372e-05 0.000393796181 0.0008568337 0.001486262896 0.00229304738 0.003324865213
0.004585251564 0.005862860395 0.006674767448 0.00373487766 0.004925154897 0.00555648913
0.005421597805 0.004659456579 0.003612111094 0.002576364773 0.001679835912 0.000935626872
0.000341212492 -9.2280859e-05 -0.000360673554 -0.000471467129 -0.000425532309 -0.000205225889
0.000229088759 0.000930816358 0.001903609791 0.002973944888 0.003727873183 0.00368914295
0.002709089517 0.001240283091 0.000155292984 0.000155292984 0.001240283091 0.002709089517
0.00368914295 0.003727873183 0.002973944888 0.001903609791 0.000930832302 0.00022910653
-0.00020520639 -0.000425511186 -0.000471444491 -0.000360673554 -9.2273257e-05 0.000341212492
0.000935626872 0.001679835912 0.002576364773 0.003612111094 0.004659147392 0.005421597805
0.003355934915 0.004002927133 0.004260575937 0.004037064706 0.003424788744 0.002615896919
0.001777342849 0.000998996646 0.000320453155 -0.000230599163 -0.000634082645 -0.000884569899
-0.000983030995 -0.000925041161 -0.000702154246 -0.000303329359 0.000288800502 0.001066212343
0.001907689441 0.002522350865 0.002563771701 0.001911517554 0.000882788969 0.00011098161
0.000110980497 0.000882788969 0.001911517554 0.002563771701 0.002522350865 0.001907689441
0.00106622614 0.000288816178 -0.000303311898 -0.000702154246 -0.000925020438 -0.000983008803
-0.000884546347 -0.000634057844 -0.000230591381 0.000320480127 0.000998996646 0.001777342849
0.002615867461 0.003424788744 0.004037064706 0.002786994886 0.003091860746 0.003142821801
0.002896018827 0.002394821837 0.001736545988 0.001022041616 0.000328485955 -0.000291110389
-0.00080172067 -0.001183937977 -0.001428768861 -0.001528132274 -0.001473266494 -0.001263454238
-0.000908597449 -0.000420690844 0.000177396146 0.000804952296 0.001285367547 0.001406142146
0.001086179889 0.000510786379 6.4721423e-05 6.472033e-05 0.000510786379 0.001086179889
0.001406142146 0.001285367547 0.000804952296 0.000177396146 -0.000420675493 -0.000908580362
-0.001263435516 -0.001473246245 -0.001528110605 -0.001428745885 -0.001183913804 -0.000801695409
-0.000291110389 0.000328485955 0.001022041616 0.001736517404 0.002394821837 0.002896018827
0.002250627567 0.002360558562 0.002295947143 0.002029986177 0.001579043454 0.000996835074
0.000355624514 -0.00027602083 -0.000847881056 -0.001329926164 -0.001703682866 -0.001952844672
-0.00206125149 -0.002019112099 -0.001830115468 -0.001512573542 -0.001091968527 -0.000602424955
-0.000103861438 0.000302214422 0.000500665698 0.000443906531 0.000221505826 2.8737917e-05
2.8737917e-05 0.000221505826 0.000443906531 0.000500673063 0.000302214422 -0.000103853514
-0.000602411768 -0.001091953563 -0.001512556896 -0.001830115468 -0.002019112099 -0.00206125149
-0.00195282236 -0.001703682866 -0.001329926164 -0.000847881056 -0.000275994587 0.000355624514
0.000996835074 0.001579043454 0.002029957552 0.001762337209 0.001767765212 0.001641007654
0.001362221044 0.000937202409 0.00040130006 -0.000188980964 -0.000776029838 -0.001317902711
-0.001788194458 -0.002164605955 -0.002423064315 -0.002543326061 -0.002517549866 -0.002351677666
-0.002061588826 -0.00167378086 -0.001226382661 -0.000771762361 -0.000374909337 -9.8698583e-05
2.7663913e-05 3.5917056e-05 5.74298e-06 5.743396e-06 3.5920164e-05 2.7666488e-05
-9.8698583e-05 -0.00037490023 -0.00077175137 -0.001226369865 -0.00167378086 -0.002061588826
-0.002351677666 -0.002517549866 -0.002543326061 -0.002423064315 -0.002164605955 -0.001788170843
-0.001317878223 -0.000776029838 -0.00018897837 0.00040130006 0.000937202409 0.001362221044
0.001318455139 0.001277937917 0.001130554281 0.00085866054 0.000462271256 -3.4563192e-05
-0.000587928313 -0.001149611825 -0.001681096873 -0.002153468379 -0.002538618957 -0.002807892396
-0.002941287225 -0.002933110354 -0.002788115704 -0.00251781053 -0.00214358313 -0.001702044172
-0.001242045415 -0.000814908713 -0.000464125766 -0.00021553145 -6.9875238e-05 -7.221035e-06
-7.220533e-06 -6.9875238e-05 -0.00021553145 -0.000464125766 -0.000814899919 -0.001242045415
-0.001702044172 -0.00214358313 -0.00251781053 -0.002788115704 -0.002933110354 -0.002941287225
-0.002807892396 -0.002538618957 -0.002153445742 -0.001681073419 -0.001149587652 -0.000587928313
-3.4560658e-05 0.000462297057 0.00085866054 0.000932884815 0.000892659174 0.00076097293
0.000517964144 0.000157794161 -0.000304648929 -0.000834168398 -0.00138640093 -0.001920247432
-0.002401079565 -0.002796922449 -0.003079208301 -0.003228686907 -0.003239239295 -0.003112950882
-0.002857663098 -0.002490913989 -0.002045690519 -0.001566309596 -0.001098995029 -0.000684472307
-0.000354161095 -0.000127946913 -1.4206983e-05 -1.420602e-05 -0.000127944031 -0.000354156319
-0.000684472307 -0.001098995029 -0.001566207921 -0.002045690519 -0.002490913989 -0.002857663098
-0.003112950882 -0.003239239295 -0.003228686907 -0.003079208301 -0.002796922449 -0.002401079565
-0.00192022512 -0.001386377954 -0.000834168398 -0.000304648929 0.000157796607 0.000517988947
0.000601743188 0.000604020549 0.000522456588 0.000330228314 1.468022e-05 -0.000415074897
-0.000927460172 -0.001477363544 -0.002018500918 -0.002510544418 -0.002919369449 -0.003217852387
-0.003387078715 -0.003418187093 -0.00331036851 -0.003069758627 -0.002712669066 -0.002268049738
-0.001774797349 -0.001276638772 -0.000816513149 -0.000433657305 -0.000160140714 -1.8012051e-05
-1.8011134e-05 -0.000160140714 -0.000433657305 -0.000816513149 -0.001276638772 -0.001774797349
-0.002268049738 -0.002712669066 -0.003069758627 -0.00331036851 -0.003418187093 -0.003387078715
-0.003217852387 -0.002919369449 -0.002510544418 -0.002018500918 -0.001477363544 -0.000927437979
-0.000415052259 1.4684362e-05 0.000330228314 0.000299202539 0.000389374796 0.000399036157
0.000286049663 2.8991342e-05 -0.000364910958 -0.000862001257 -0.001413003405 -0.001965753649
-0.002473903949 -0.002900660793 -0.003218222333 -0.003408393336 -0.003460767154 -0.003372750345
-0.003150576593 -0.002809842655 -0.002375545222 -0.001882229504 -0.001371041066 -0.000887342009
-0.000476195913 -0.000177289794 -2.0032088e-05 -2.0032088e-05 -0.000177289794 -0.000476195913
-0.000887342009 -0.001371041066 -0.001882229504 -0.002375545222 -0.00280972295 -0.003150576593
-0.003372750345 -0.003460611278 -0.003408393336 -0.003218222333 -0.002900660793 -0.002473903949
-0.001965753649 -0.001413003405 -0.000861980534 -0.000364889836 2.8995633e-05 0.000286049663
-8.84267e-06 0.000233379758 0.000397423454 0.000407248366 0.00022579539 -0.000135310645
-0.000628733984 -0.001192742288 -0.001766657372 -0.002298202369 -0.002746322001 -0.003083388813
-0.003292497111 -0.003364932328 -0.003299264406 -0.003101608569 -0.00278612163 -0.002375039138
-0.00189852762 -0.001395167861 -0.00091046954 -0.000492202541 -0.000184287926 -2.0888413e-05
-2.0888413e-05 -0.000184287926 -0.000492202541 -0.00091046954 -0.001395167861 -0.00189852762
-0.002375039138 -0.00278612163 -0.003101485137 -0.003299264406 -0.003364932328 -0.003292497111
-0.003083388813 -0.002746322001 -0.002298025883 -0.001766639147 -0.001192742288 -0.000628733984
-0.000135302845 0.00022579539 0.000407248366 -0.000372787157 0.000129252344 0.00055530904
0.000757552036 0.000667784222 0.000314017405 -0.000216409399 -0.000827040004 -0.001440298131
-0.002000612255 -0.002469169949 -0.002821830798 -0.003046049568 -0.00313730542 -0.003096054113
-0.002929067068 -0.002649000628 -0.002275200768 -0.001833766409 -0.001359122199 -0.000894370783
-0.000487117243 -0.000183422495 -2.085504e-05 -2.085504e-05 -0.000183422495 -0.000487117243
-0.000894370783 -0.001359122199 -0.001833688399 -0.002275200768 -0.002649000628 -0.002929067068
-0.003096054113 -0.00313730542 -0.003046049568 -0.002821830798 -0.002469169949 -0.002000612255
-0.001440298131 -0.000827040004 -0.000216409399 0.000314017405 0.000667784222 0.000757552036
-0.00085775582 6.732992e-05 0.000918240785 0.001416251414 0.001435844827 0.001038169799
0.000393422689 -0.000327464954 -0.0010126582 -0.001608042804 -0.002090983296 -0.002451537243
-0.002685700118 -0.002793203617 -0.002777320654 -0.002645624281 -0.002409975295 -0.002086845152
-0.001697223743 -0.001270149454 -0.000843818758 -0.000463455579 -0.00017562839 -2.0037383e-05
-2.0037383e-05 -0.00017562839 -0.000463455579 -0.000843818758 -0.001270149454 -0.001697223743
-0.002086845152 -0.002409975295 -0.002645624281 -0.002777320654 -0.002793203617 -0.002685700118
-0.002451537243 -0.002090983296 -0.001608042804 -0.001012643236 -0.000327449604 0.000393422689
0.001038169799 0.001435844827 0.001416251414 -0.001484408182 3.4501702e-05 0.001481974098
0.002387560432 0.002538324018 0.002041335041 0.001192786944 0.000283236295 -0.000517583056
-0.001158860215 -0.001648971004 -0.002005961485 -0.002240293295 -0.002357875702 -0.002364792558
-0.002270040351 -0.002084880831 -0.001822049066 -0.001497387246 -0.001133246859 -0.000761497253
-0.000422636197 -0.000161458702 -1.8502278e-05 -1.8502278e-05 -0.000161460487 -0.000422636197
-0.000761497253 -0.001133246859 -0.001497387246 -0.001822049066 -0.002084880831 -0.002270040351
-0.002364792558 -0.002357875702 -0.002240293295 -0.002005843244 -0.001648971004 -0.001158847419
-0.000517583056 0.000283236295 0.001192800741 0.002041335041 0.002538324018 0.002387560432
-0.002140049157 1.9010982e-05 0.002113103175 0.003463425648 0.003756076817 0.003142122619
0.002054052515 0.000920137705 -1.7072508e-05 -0.00070610244 -0.001192083557 -0.001529401425
-0.001749273216 -0.001865653206 -0.001888429971 -0.001827993715 -0.001694330948 -0.001496261908
-0.001244368978 -0.000954573747 -0.000650908575 -0.000366486208 -0.000141645284 -1.6338544e-05
-1.6338544e-05 -0.000141646825 -0.000366486208 -0.000650908575 -0.000954573747 -0.001244368978
-0.001496261908 -0.001694330948 -0.001827993715 -0.001888429971 -0.001865653206 -0.001749176534
-0.001529401425 -0.001192083557 -0.000706091449 -1.7063452e-05 0.000920149305 0.002054052515
0.003142122619 0.003756076817 0.003463425648 -0.002560047146 1.0633927e-05 0.002528622965
0.0041813526 0.004584606997 0.003909335057 0.002673033963 0.001398107293 0.000382915574
-0.000316585047 -0.000772003045 -0.001068130067 -0.00125561952 -0.001357431217 -0.001386640543
-0.001353936936 -0.001267099876 -0.001131635361 -0.000953900817 -0.000743952215 -0.000517156095
-0.000296941921 -0.00011664796 -1.357898e-05 -1.357898e-05 -0.00011664796 -0.000296941921
-0.000517156095 -0.000743952215 -0.000953900817 -0.001131635361 -0.001267099876 -0.001353936936
-0.001386640543 -0.001357431217 -0.00125561952 -0.001068130067 -0.000771994251 -0.00031657594
0.000382915574 0.001398107293 0.002673033963 0.003909335057 0.004584606997 0.0041813526
-0.002460857846 2.753865e-06 0.002430115278 0.004042864382 0.004465303836 0.003850873553
0.002692805654 0.001498889617 0.000564521234 -5.3971113e-05 -0.000432007914 -0.000661904152
-0.000801491882 -0.000877702162 -0.000904366454 -0.000890440269 -0.000841323893 -0.00075998155
-0.000650024525 -0.000516802967 -0.000367666463 -0.000216136037 -8.6541691e-05 -1.0181884e-05
-1.0181884e-05 -8.6541691e-05 -0.000216136037 -0.000367666463 -0.000516802967 -0.000650024525
-0.00075998155 -0.000841323893 -0.000890440269 -0.000904310971 -0.000877702162 -0.000801491882
-0.000661897521 -0.000432007914 -5.3965388e-05 0.000564528599 0.001498965022 0.002692805654
0.003850873553 0.004465303836 0.004042864382 -0.001775398577 -3.461036e-06 0.001748761168
0.0029229117 0.003244895025 0.002818873502 0.001996364568 0.00114520315 0.000483425666
5.4882705e-05 -0.000196172546 -0.000340709642 -0.000424858197 -0.000470663737 -0.000488642812
-0.00048476153 -0.0004618894 -0.000421601845 -0.000365771761 -0.00029653841 -0.000215985291
-0.000129966834 -5.2996149e-05 -6.297185e-06 -6.296941e-06 -5.2995418e-05 -0.000129966834
-0.000215985291 -0.00029653841 -0.000365797277 -0.000421601845 -0.0004618894 -0.00048476153
-0.000488642812 -0.000470663737 -0.00042485365 -0.000340704865 -0.000196167568 5.4887857e-05
0.000483430966 0.00114520315 0.001996364568 0.002818873502 0.003244895025 0.0029229117
-0.00080480074 -3.807105e-06 0.000790012448 0.001324878196 0.001475818745 0.001287852351
0.000918706935 0.000535153149 0.000237531542 4.6885757e-05 -6.2067613e-05 -0.000122534129
-0.000156636246 -0.000175102437 -0.000182884982 -0.000182484569 -0.000174994462 -0.000161019577
-0.000141326208 -0.000116431114 -8.6431376e-05 -5.2964731e-05 -2.1898262e-05 -2.621082e-06
-2.620787e-06 -2.1897379e-05 -5.2964001e-05 -8.6431376e-05 -0.000116432397 -0.000141327749
-0.000161019577 -0.000174994462 -0.000182484569 -0.000182882567 -0.000175099848 -0.000156633502
-0.000122531247 -6.206461e-05 4.6888864e-05 0.000237534738 0.000535153149 0.000918706935
0.001287852351 0.001475818745 0.001324878196 -0.000100330189 -6.4231e-07 9.8255499e-05
0.000165063823 0.000184187677 0.000161075951 0.000115296461 6.7608811e-05 3.0618816e-05
7.028406e-06 -6.302547e-06 -1.3569182e-05 -1.7600122e-05 -1.9776775e-05 -2.0724509e-05
-2.0745042e-05 -1.9962677e-05 -1.844974e-05 -1.6298845e-05 -1.3550223e-05 -1.0165634e-05
-6.291075e-06 -2.620048e-06 -3.14833e-07 -3.14699e-07 -2.619753e-06 -6.29083e-06
-1.0165634e-05 -1.3550653e-05 -1.629936e-05 -1.844974e-05 -1.9962677e-05 -2.0745042e-05
-2.0724509e-05 -1.977591e-05 -1.7599204e-05 -1.3568218e-05 -6.301744e-06 7.029444e-06
3.0619884e-05 6.7609904e-05 0.000115296461 0.000161087245 0.000184187677 0.000165063823
-0.000100331351 -6.43692e-07 9.8254342e-05 0.000165063823 0.000184187677 0.000161087245
0.000115296461 6.7610997e-05 3.0619884e-05 7.029964e-06 -6.301343e-06 -1.3568218e-05
-1.7599204e-05 -1.977591e-05 -2.0724509e-05 -2.0745785e-05 -1.996335e-05 -1.8450934e-05
-1.6300391e-05 -1.3551511e-05 -1.0166988e-05 -6.291808e-06 -2.620196e-06 -3.14759e-07
-3.14872e-07 -2.620491e-06 -6.291808e-06 -1.0166649e-05 -1.3551082e-05 -1.6299876e-05
-1.8450337e-05 -1.996335e-05 -2.0745785e-05 -2.0725317e-05 -1.9776775e-05 -1.7600122e-05
-1.3569182e-05 -6.302246e-06 7.028925e-06 3.0618816e-05 6.7609904e-05 0.000115296461
0.000161087245 0.000184187677 0.000165063823 -0.00080480074 -3.812319e-06 0.000790012448
0.001324878196 0.001475818745 0.001287852351 0.000918706935 0.000535153149 0.000237537934
4.6888864e-05 -6.206461e-05 -0.000122531247 -0.000156633502 -0.000175102437 -0.000182884982
-0.000182484569 -0.000174996474 -0.000161021362 -0.000141330832 -0.000116434963 -8.6435424e-05
-5.2966193e-05 -2.1898703e-05 -2.620935e-06 -2.621082e-06 -2.1898703e-05 -5.2966193e-05
-8.6434412e-05 -0.00011643368 -0.00014132929 -0.000161021362 -0.000174996474 -0.000182484569
-0.000182884982 -0.000175102437 -0.000156636246 -0.000122534129 -6.2067613e-05 4.6885757e-05
0.000237534738 0.000535153149 0.000918706935 0.001287852351 0.001475818745 0.001324878196
-0.001775398577 -3.47183e-06 0.001748761168 0.0029229117 0.003244895025 0.002818873502
0.001996364568 0.00114520315 0.000483436267 5.4893009e-05 -0.000196167568 -0.000340704865
-0.00042485365 -0.000470663737 -0.000488642812 -0.00048476153 -0.0004618894 -0.000421601845
-0.000365797277 -0.00029653841 -0.000215985291 -0.000129966834 -5.2996879e-05 -6.297185e-06
-6.297185e-06 -5.2996879e-05 -0.000129966834 -0.000215985291 -0.00029653841 -0.000365797277
-0.000421601845 -0.0004618894 -0.00048476153 -0.000488642812 -0.000470663737 -0.000424858197
-0.000340704865 -0.000196172546 5.4887857e-05 0.000483430966 0.00114520315 0.001996364568
0.002818873502 0.003244895025 0.0029229117 -0.002460857846 2.737392e-06 0.002430115278
0.004042864382 0.004465303836 0.003850873553 0.002692882506 0.001498965022 0.000564535964
-5.396181e-05 -0.000432001001 -0.000661897521 -0.000801491882 -0.000877702162 -0.000904310971
-0.000890440269 -0.000841323893 -0.00075998155 -0.000650024525 -0.000516802967 -0.000367666463
-0.000216136037 -8.6543715e-05 -1.0182222e-05 -1.0181884e-05 -8.6542703e-05 -0.000216136037
-0.000367666463 -0.000516802967 -0.000650024525 -0.00075998155 -0.000841323893 -0.000890440269
-0.000904366454 -0.000877702162 -0.000801491882 -0.000661904152 -0.000432007914 -5.3968966e-05
0.000564528599 0.001498965022 0.002692805654 0.003850873553 0.004465303836 0.004042864382
-0.002560047146 1.0614443e-05 0.002528520811 0.004181251077 0.004584606997 0.003909335057
0.002673033963 0.001398203323 0.00038292495 -0.000316566832 -0.000771985457 -0.001068130067
-0.00125561952 -0.001357431217 -0.001386640543 -0.001353936936 -0.001267099876 -0.001131635361
-0.000953900817 -0.000743952215 -0.000517185522 -0.000296963158 -0.000116649243 -1.3579409e-05
-1.357898e-05 -0.00011664796 -0.000296941921 -0.000517185522 -0.000743952215 -0.000953900817
-0.001131635361 -0.001267099876 -0.001353936936 -0.001386640543 -0.001357431217 -0.00125561952
-0.001068130067 -0.000771994251 -0.00031657594 0.000382915574 0.001398107293 0.002673033963
0.003909335057 0.004584606997 0.004181251077 -0.002140049157 1.8993597e-05 0.002113103175
0.003463302801 0.003756076817 0.003142122619 0.002054052515 0.000920149305 -1.7057792e-05
-0.000706091449 -0.001192083557 -0.001529401425 -0.001749176534 -0.001865653206 -0.001888429971
-0.001827993715 -0.001694330948 -0.001496261908 -0.001244368978 -0.000954573747 -0.000650943937
-0.000366486208 -0.000141648367 -1.6339059e-05 -1.6338544e-05 -0.000141645284 -0.000366486208
-0.000650908575 -0.000954573747 -0.001244368978 -0.001496261908 -0.001694330948 -0.001827993715
-0.001888429971 -0.001865653206 -0.001749273216 -0.001529401425 -0.001192083557 -0.00070610244
-1.7069112e-05 0.000920137705 0.002054052515 0.003142122619 0.003756076817 0.003463302801
-0.001484408182 3.4490089e-05 0.001481974098 0.002387560432 0.002538324018 0.002041335041
0.001192800741 0.000283249814 -0.000517569869 -0.001158847419 -0.001648971004 -0.002005843244
-0.002240293295 -0.002357875702 -0.002364792558 -0.002270040351 -0.002084880831 -0.001822049066
-0.001497387246 -0.001133246859 -0.000761538218 -0.000422636197 -0.000161460487 -1.8502875e-05
-1.8502278e-05 -0.000161458702 -0.000422636197 -0.000761497253 -0.001133246859 -0.001497387246
-0.001822049066 -0.002084880831 -0.002270040351 -0.002364792558 -0.002357875702 -0.002240293295
-0.002005961485 -0.001648971004 -0.001158860215 -0.000517583056 0.000283236295 0.001192786944
0.002041335041 0.00253818195 0.002387560432 -0.00085775582 6.7323305e-05 0.000918240785
0.001416251414 0.001435844827 0.001038185743 0.000393438365 -0.000327434253 -0.001012628272
-0.001608042804 -0.002090983296 -0.002451537243 -0.002685700118 -0.002793203617 -0.002777320654
-0.002645624281 -0.002409975295 -0.002086845152 -0.001697223743 -0.001270149454 -0.000843818758
-0.000463455579 -0.00017562839 -2.0037383e-05 -2.0037383e-05 -0.00017562839 -0.000463455579
-0.000843818758 -0.001270149454 -0.001697223743 -0.002086845152 -0.002409975295 -0.002645624281
-0.002777320654 -0.002793203617 -0.002685700118 -0.002451537243 -0.002090983296 -0.001608042804
-0.001012643236 -0.000327449604 0.000393422689 0.001038169799 0.001435844827 0.001416251414
-0.000372787157 0.000129250496 0.00055530904 0.000757552036 0.000667802246 0.000314035176
-0.000216391938 -0.000827022916 -0.001440281485 -0.002000450941 -0.002469169949 -0.002821830798
-0.003046049568 -0.00313730542 -0.003096054113 -0.002929067068 -0.002649000628 -0.002275200768
-0.001833688399 -0.001359122199 -0.000894370783 -0.000487117243 -0.000183422495 -2.085504e-05
-2.085504e-05 -0.000183422495 -0.000487117243 -0.000894370783 -0.001359122199 -0.001833688399
-0.002275200768 -0.002649000628 -0.002929067068 -0.003096054113 -0.00313730542 -0.003046049568
-0.002821830798 -0.002469169949 -0.002000612255 -0.001440298131 -0.000827040004 -0.000216409399
0.000314017405 0.000667784222 0.000757552036 -8.842874e-06 0.000233379758 0.000397423454
0.000407268387 0.000225815179 -0.000135293096 -0.000628714839 -0.001192723566 -0.001766639147
-0.002298025883 -0.002746322001 -0.003083388813 -0.003292497111 -0.003364932328 -0.003299264406
-0.003101485137 -0.00278612163 -0.002375039138 -0.00189852762 -0.001395167861 -0.00091046954
-0.000492202541 -0.000184287926 -2.0888413e-05 -2.0888413e-05 -0.000184287926 -0.000492202541
-0.00091046954 -0.001395167861 -0.00189852762 -0.002375039138 -0.00278612163 -0.003101485137
-0.003299264406 -0.003364932328 -0.003292497111 -0.003083388813 -0.002746322001 -0.002298025883
-0.001766639147 -0.001192742288 -0.000628733984 -0.000135304795 0.00022579539 0.000407248366
0.000299202539 0.000389374796 0.000399058086 0.000286071383 2.9006359e-05 -0.000364889836
-0.000861980534 -0.001412983155 -0.001965733953 -0.002473903949 -0.002900660793 -0.003218222333
-0.003408393336 -0.003460611278 -0.003372750345 -0.003150576593 -0.00280972295 -0.002375545222
-0.001882229504 -0.001371041066 -0.000887342009 -0.000476195913 -0.000177289794 -2.0032088e-05
-2.0032088e-05 -0.000177289794 -0.000476195913 -0.000887342009 -0.001371041066 -0.001882229504
-0.002375545222 -0.00280972295 -0.003150576593 -0.003372750345 -0.003460611278 -0.003408393336
-0.003218222333 -0.002900660793 -0.002473903949 -0.001965753649 -0.001413003405 -0.000861980534
-0.000364889836 2.8995633e-05 0.000286049663 0.000601743188 0.000604044291 0.000522480144
0.000330228314 1.4696788e-05 -0.000415052259 -0.000927437979 -0.001477341875 -0.002018479858
-0.002510544418 -0.002919369449 -0.003217852387 -0.003387078715 -0.003418187093 -0.00331036851
-0.003069758627 -0.002712669066 -0.002268049738 -0.001774797349 -0.001276638772 -0.000816513149
-0.000433652757 -0.000160140714 -1.8011134e-05 -1.8011134e-05 -0.000160140714 -0.000433657305
-0.000816513149 -0.001276638772 -0.001774797349 -0.002268049738 -0.002712669066 -0.003069758627
-0.00331036851 -0.003418187093 -0.003387078715 -0.003217852387 -0.002919369449 -0.002510544418
-0.002018500918 -0.001477363544 -0.000927437979 -0.000415052259 1.4686663e-05 0.000330228314
0.000932884815 0.00089268447 0.00076097293 0.000517988947 0.000157811283 -0.000304624884
-0.000834144846 -0.001386354978 -0.00192022512 -0.002401079565 -0.002796922449 -0.00307901089
-0.003228686907 -0.003239239295 -0.003112950882 -0.002857663098 -0.002490913989 -0.002045690519
-0.001566207921 -0.001098995029 -0.000684472307 -0.000354156319 -0.000127944031 -1.420602e-05
-1.4206983e-05 -0.000127946913 -0.000354161095 -0.000684472307 -0.001098995029 -0.001566207921
-0.002045690519 -0.002490913989 -0.002857663098 -0.003112950882 -0.003239239295 -0.003228686907
-0.003079208301 -0.002796922449 -0.002401079565 -0.00192022512 -0.001386377954 -0.000834168398
-0.000304648929 0.000157801499 0.000517988947 0.001318455139 0.001277937917 0.001130580779
0.00085866054 0.000462297057 -3.4545453e-05 -0.000587903512 -0.001149587652 -0.001681073419
-0.002153423104 -0.002538618957 -0.002807892396 -0.002941287225 -0.002933110354 -0.002788115704
-0.00251781053 -0.00214358313 -0.001702044172 -0.001242045415 -0.000814891125 -0.000464118853
-0.000215526472 -6.9872235e-05 -7.220333e-06 -7.221035e-06 -6.9875238e-05 -0.00021553145
-0.000464125766 -0.000814899919 -0.001242045415 -0.001702044172 -0.00214358313 -0.00251781053
-0.002788115704 -0.002933110354 -0.002941287225 -0.002807892396 -0.002538618957 -0.002153445742
-0.001681073419 -0.001149587652 -0.000587928313 -3.455559e-05 0.000462297057 0.00085866054
0.001762337209 0.001767765212 0.001641007654 0.001362248502 0.000937202409 0.000401326589
-0.000188960212 -0.000776004577 -0.001317853735 -0.001788147229 -0.002164583318 -0.002423064315
-0.002543326061 -0.002517549866 -0.00235150118 -0.002061588826 -0.00167378086 -0.001226357069
-0.000771740379 -0.00037490023 -9.8691426e-05 2.7669064e-05 3.5920164e-05 5.743603e-06
5.743084e-06 3.5920164e-05 2.7665973e-05 -9.8698583e-05 -0.00037490023 -0.00077175137
-0.001226369865 -0.00167378086 -0.002061588826 -0.002351677666 -0.002517549866 -0.002543326061
-0.002423064315 -0.002164605955 -0.001788170843 -0.001317878223 -0.000776029838 -0.000188970588
0.00040130006 0.000937202409 0.001362221044 0.002250627567 0.002360558562 0.002295947143
0.002029986177 0.001579043454 0.000996862683 0.000355624514 -0.000275994587 -0.00084785564
-0.001329901676 -0.001703659413 -0.001952800049 -0.002061230431 -0.002019112099 -0.001830115468
-0.001512540251 -0.001091938599 -0.000602398582 -0.000103842193 0.000302223798 0.000500673063
0.000443911831 0.000221509022 2.8737917e-05 2.8737917e-05 0.000221505826 0.000443906531
0.000500673063 0.000302223798 -0.00010385125 -0.000602411768 -0.001091953563 -0.001512556896
-0.001830115468 -0.002019112099 -0.002061230431 -0.00195282236 -0.001703682866 -0.001329926164
-0.00084785564 -0.000275994587 0.000355624514 0.000996835074 0.001579043454 0.002029986177
0.002786994886 0.003091860746 0.003142821801 0.002896018827 0.002394821837 0.001736545988
0.001022069515 0.000328513076 -0.000291084146 -0.000801695409 -0.001183913804 -0.001428722909
-0.001528088937 -0.001473225995 -0.001263416794 -0.000908563275 -0.000420660142 0.000177409665
0.000804963896 0.001285367547 0.001406142146 0.001086179889 0.000510786379 6.4721423e-05
6.4721423e-05 0.000510786379 0.001086179889 0.001406142146 0.001285367547 0.000804963896
0.000177409665 -0.000420675493 -0.000908580362 -0.001263435516 -0.001473246245 -0.001528110605
-0.001428745885 -0.001183913804 -0.000801695409 -0.000291110389 0.000328513076 0.001022069515
0.001736545988 0.002394821837 0.002896018827 0.003355934915 0.004002927133 0.004260575937
0.004037064706 0.003424788744 0.002615896919 0.001777342849 0.000998996646 0.000320480127
-0.000230575817 -0.000634057844 -0.000884522795 -0.00098298661 -0.000924999714 -0.000702135102
-0.000303294438 0.000288831854 0.001066239937 0.001907689441 0.002522350865 0.002563771701
0.001911517554 0.000882788969 0.000110980497 0.00011098161 0.000882788969 0.001911517554
0.002563771701 0.002522350865 0.001907689441 0.00106622614 0.000288816178 -0.000303311898
-0.000702135102 -0.000925020438 -0.000983008803 -0.000884546347 -0.000634057844 -0.000230583599
0.000320480127 0.000998996646 0.001777342849 0.002615896919 0.003424788744 0.004037064706
0.00373487766 0.004925154897 0.00555648913 0.005421597805 0.004659147392 0.003612111094
0.002576364773 0.001679835912 0.00093565448 0.000341239021 -9.2255518e-05 -0.000360649509
-0.000471421852 -0.000425490064 -0.000205186891 0.000229124301 0.000930848246 0.001903750041
0.0029740651 0.003727873183 0.00368914295 0.002709089517 0.001240283091 0.000155292984