# Generated by pySCP 
# 2024-01-22 22:14:58.285142
CRYSTAL
PRIMVEC
4.1863376 0.0 0.0
0.0 4.1863376 0.0
0.0 0.0 4.1863376
CONVVEC
4.1863376 0.0 0.0
0.0 4.1863376 0.0
0.0 0.0 4.1863376
PRIMCOORD
8 1
O 0.0 0.0 0.0
O 0.0 2.0931688 2.0931688
O 2.0931688 0.0 2.0931688
O 2.0931688 2.0931688 0.0
Ni 0.0 0.0 2.0931688
Ni 2.0931688 0.0 0.0
Ni 0.0 2.0931688 0.0
Ni 2.0931688 2.0931688 2.0931688
BEGIN_BLOCK_DATAGRID_3D
3D_field
BEGIN_DATAGRID_3D_UNKNOWN
45 45 45
-0.09303 -0.09303 -0.09303
4.0933079 0.0 0.0
0.0 4.0933079 0.0
0.0 0.0 4.0933079
0.009840219532 0.007506647097 0.003860270844 0.000241866286 -0.002308595673 -0.00358250006
-0.004009696826 -0.00410389892 -0.004122364619 -0.004112163117 -0.004083575242 -0.00406245563
-0.004048011747 -0.004008624139 -0.003898419354 -0.003580883791 -0.002710402218 -0.000829313999
0.002196235247 0.0057425805 0.008578596847 0.009724373988 0.009316301633 0.008540156868
0.008540156868 0.009316301633 0.009724373988 0.008578596847 0.0057425805 0.002196235247
-0.000829261384 -0.002710298257 -0.003580781245 -0.003898368853 -0.00400857447 -0.004047962961
-0.00406245563 -0.004083622132 -0.0041122549 -0.004122499222 -0.004104118045 -0.004009996207
-0.003582875401 -0.002309002045 0.000241490361 0.006316070296 0.003522410877 -7.8929072e-05
-0.003161670399 -0.004890898887 -0.005320104427 -0.005056621948 -0.004655774142 -0.004328356163
-0.004061893778 -0.003829552086 -0.003638309717 -0.003473047452 -0.003287379723 -0.003017087114
-0.002495067803 -0.00132638234 0.001006953601 0.004688600091 0.009105332802 0.012969924804
0.015168198226 0.01563874802 0.015366011317 0.015366011317 0.01563874802 0.015168198226
0.012969924804 0.009105332802 0.004688600091 0.001007006082 -0.001326330518 -0.002494965626
-0.003017036826 -0.003287280868 -0.003472998938 -0.003638309717 -0.003829598646 -0.004061984841
-0.004328489603 -0.004655774142 -0.005057045238 -0.005320516838 -0.004891300406 -0.00316202199
0.00202356137 -0.000853523943 -0.003947708555 -0.006133958486 -0.00688850023 -0.006505317414
-0.005668682879 -0.004888833913 -0.004300773448 -0.003838222302 -0.003446055915 -0.003111106732
-0.00280334963 -0.002470806508 -0.00205319274 -0.001395581076 -0.000124213226 0.002263881286
0.005981100043 0.010509930778 0.01467940942 0.017400958915 0.018467296156 0.018598347497
0.018598347497 0.018467296156 0.017400958915 0.01467940942 0.010509930778 0.005981100043
0.002263933522 -0.00012412043 -0.001395479487 -0.002053092806 -0.00247075743 -0.002803301493
-0.003111106732 -0.003446102041 -0.003838312444 -0.004300905428 -0.004889262909 -0.005668682879
-0.006505724276 -0.006888896007 -0.006134343229 -0.001478881975 -0.004032003529 -0.006358576848
-0.007636442661 -0.007634632726 -0.006769997852 -0.005675570801 -0.004746002295 -0.004035822485
-0.003453364167 -0.002938406733 -0.002472737955 -0.002027444644 -0.001564495247 -0.001047321629
-0.000361258148 0.000797727197 0.002856084928 0.006021558203 0.0099138172 0.013598395859
0.016159230261 0.01734543815 0.017644065532 0.017644065532 0.01734543815 0.016159230261
0.013598395859 0.0099138172 0.006021558203 0.002856188665 0.000797829522 -0.00036115739
-0.001047222577 -0.001564398025 -0.002027397002 -0.002472737955 -0.002938406733 -0.003453408668
-0.004035952685 -0.004746425139 -0.005675982402 -0.006769997852 -0.007635021812 -0.007636820572
-0.003342141559 -0.005310914181 -0.006866916572 -0.007486865703 -0.007129189358 -0.00619448091
-0.005162409078 -0.004283300188 -0.003557708658 -0.002908802495 -0.002301802375 -0.001733445819
-0.001189547286 -0.000651926713 -0.000105658786 0.000523407413 0.001451978218 0.002992970239
0.005312121684 0.008157176721 0.010870118496 0.012784904555 0.013701944117 0.013953541287
0.013953541287 0.013701944117 0.012784904555 0.010870118496 0.008157176721 0.005312121684
0.002993072965 0.001452130125 0.000523507072 -0.000105560881 -0.0006518787 -0.001189500265
-0.001733399835 -0.002301802375 -0.002908846307 -0.00355779404 -0.004283300188 -0.005162409078
-0.00619448091 -0.007129570741 -0.007486865703 -0.00373487766 -0.005078605596 -0.006032411238
-0.006300263105 -0.005916684563 -0.005171743524 -0.004359620592 -0.003608342285 -0.002907425688
-0.002227820326 -0.001576285524 -0.000966515678 -0.00039201622 0.000159029708 0.000693751251
0.001253362123 0.001965238166 0.003016886376 0.004510242836 0.006293329778 0.007960163879
0.009098943767 0.009602465419 0.009709928476 0.009709928476 0.009602465419 0.009098943767
0.007960163879 0.006293329778 0.004510396927 0.003017038493 0.001965388044 0.00125350952
0.000693847719 0.000159119528 -0.000391946828 -0.000966470473 -0.001576241411 -0.002227820326
-0.002907467546 -0.003608423705 -0.004359620592 -0.005171743524 -0.005916684563 -0.006300263105
-0.003355934915 -0.004194004027 -0.004749781403 -0.004871351989 -0.004595209088 -0.004081307585
-0.003472430801 -0.002826831862 -0.002158285424 -0.001490975287 -0.000858082761 -0.000269984827
0.000288864843 0.000832621714 0.001360173711 0.001876749497 0.002426989144 0.003091276482
0.003919605698 0.004841151721 0.005652308559 0.006147721693 0.006296872575 0.006274912758
0.006274912758 0.006296872575 0.006147721693 0.005652308559 0.004841253982 0.003919757364
0.003091426128 0.002427087381 0.001876846045 0.001360268427 0.000832714475 0.000288946474
-0.000269922838 -0.000858039589 -0.001490975287 -0.002158285424 -0.002826871597 -0.003472507953
-0.004081681776 -0.004595571801 -0.004871351989 -0.002786994886 -0.003282440149 -0.003596828848
-0.003654889165 -0.003469610291 -0.003102824808 -0.002610187576 -0.00203213784 -0.001414519349
-0.00080735396 -0.000236537446 0.000308719488 0.000851123547 0.001392434537 0.00190776137
0.002365934856 0.002755086758 0.003094165412 0.003414362118 0.003713651074 0.003931318617
0.003997141992 0.003923273522 0.003826358384 0.003826358384 0.003923324763 0.003997243981
0.003931419875 0.003713751372 0.003414510805 0.003094263165 0.002755182957 0.002366029339
0.001907853993 0.001392525178 0.000851212105 0.000308788601 -0.000236486951 -0.000807313019
-0.001414519349 -0.00203213784 -0.002610187576 -0.003102824808 -0.003469645454 -0.003654889165
-0.002250627567 -0.002534784095 -0.002704547391 -0.002719587251 -0.002569956141 -0.002264667676
-0.001829297514 -0.001311635328 -0.000770874376 -0.000246166167 0.000263864625 0.000781534123
0.00131078529 0.001820634686 0.0022614901 0.002589241581 0.002778903176 0.002833185072
0.002783040849 0.00266715729 0.002504272276 0.002299727453 0.002086921779 0.001944197099
0.001944197099 0.002086971853 0.002299827099 0.002504371179 0.00266725522 0.002783185958
0.002833328095 0.00277904384 0.002589379642 0.002261625346 0.001820722852 0.001310871359
0.000781618014 0.000263934031 -0.000246114574 -0.000770835842 -0.001311597952 -0.001829297514
-0.002264667676 -0.002569956141 -0.002719587251 -0.001762365525 -0.001920569659 -0.002007106471
-0.001992638324 -0.001850564603 -0.001571469322 -0.001180655676 -0.000731763466 -0.000272215137
0.000186849048 0.000661267988 0.001153954528 0.001629486653 0.002030371035 0.002310027868
0.002444978304 0.002424234696 0.002246344536 0.001930626896 0.001520533952 0.001069021481
0.000629605034 0.00026615702 5.5397505e-05 5.5412148e-05 0.000266195964 0.000629653461
0.001069117585 0.001520629075 0.00193076778 0.002246483319 0.002424371106 0.0024450675
0.00231015884 0.002030456348 0.001629611477 0.00115403557 0.000661346799 0.000186914109
-0.000272159447 -0.000731727488 -0.001180620842 -0.001571435623 -0.001850532025 -0.001992638324
-0.001318482076 -0.001408177857 -0.001455577899 -0.001429366991 -0.001294283835 -0.001041072302
-0.000700115899 -0.000317078046 8.4281854e-05 0.000507836922 0.000952513844 0.001381930136
0.00173355482 0.00195644927 0.002032680659 0.001961300487 0.00173149887 0.001322811223
0.000733786456 5.671148e-06 -0.000780716015 -0.001522000089 -0.002106764401 -0.002431772699
-0.002431772699 -0.002106717355 -0.001521953297 -0.000780623184 5.753352e-06 0.000733877103
0.00132290047 0.001731630369 0.001961429378 0.002032764711 0.001956572363 0.001733674789
0.00138200796 0.000952589461 0.000507910298 8.4349416e-05 -0.000317019517 -0.000700049292
-0.001041040112 -0.001294252742 -0.001429336975 -0.000932910271 -0.000997378783 -0.001036480376
-0.001013546774 -0.000894140507 -0.000676019865 -0.000387432101 -5.5283146e-05 0.000313105091
0.000709814594 0.0010970376 0.001410931225 0.001596530658 0.001631472547 0.001512005813
0.001220852029 0.00071757913 -3.4857316e-05 -0.001030557861 -0.002200333508 -0.003420290507
-0.004536884742 -0.005393713306 -0.005859942278 -0.005859942278 -0.005393713306 -0.004536884742
-0.003420245979 -0.002200289469 -0.001030470975 -3.4768398e-05 0.000717663063 0.001220975347
0.001512126353 0.001631590142 0.001596607003 0.001411042565 0.001097109659 0.000709884458
0.000313176129 -5.5217698e-05 -0.000387368847 -0.000675958778 -0.000894081552 -0.001013518341
-0.000601767062 -0.00067396177 -0.000726804755 -0.000721054743 -0.000630121677 -0.000457493123
-0.000220282895 7.3513639e-05 0.000415552819 0.00076838864 0.001064200785 0.001241273576
0.00127203628 0.001145230848 0.000825931077 0.000246197325 -0.000659320382 -0.001906897876
-0.003442751944 -0.005149841553 -0.006865061581 -0.00839768628 -0.009556703678 -0.010181391413
-0.010181391413 -0.009556703678 -0.00839768628 -0.006865061581 -0.005149841553 -0.003442669325
-0.00190681662 -0.000659240663 0.000246287064 0.000826045408 0.001145305151 0.001272108581
0.001241378932 0.001064302981 0.000768487638 0.000415648605 7.3584618e-05 -0.000220220311
-0.00045743561 -0.000630066215 -0.00072100129 -0.000299224731 -0.000406611144 -0.00049770705
-0.000531628466 -0.000488577547 -0.000370994787 -0.000181701879 7.9449736e-05 0.000387828037
0.000678020033 0.000874707498 0.000935476896 0.000844223273 0.000560034847 -9.095203e-06
-0.000966438082 -0.00236148244 -0.004163812913 -0.006280943038 -0.008578590263 -0.010875745624
-0.012939740492 -0.014511632157 -0.015364081616 -0.015364081616 -0.014511632157 -0.012939740492
-0.010875745624 -0.00857819541 -0.006280943038 -0.004163812913 -0.002361407425 -0.000966328009
-9.013549e-06 0.000560139507 0.000844291115 0.000935542749 0.000874803237 0.000678112701
0.000387917626 7.9521837e-05 -0.000181637874 -0.000370941124 -0.000488525841 -0.00053157867
8.830829e-06 -0.000167299359 -0.000337358385 -0.000449471803 -0.000478140347 -0.000417504055
-0.000264439846 -2.8656094e-05 0.000241836359 0.000468887738 0.000588226552 0.000568531222
0.000370550192 -9.8669507e-05 -0.000966425214 -0.002323838704 -0.004185677342 -0.006513210117
-0.009243074215 -0.012266417502 -0.015371915299 -0.018228220742 -0.020439381212 -0.021649013733
-0.021649013733 -0.020439381212 -0.018228220742 -0.015371915299 -0.012266417502 -0.009243074215
-0.006513210117 -0.004185677342 -0.002323770453 -0.00096635864 -9.8594981e-05 0.00037064464
0.000568592295 0.000588315274 0.000468944944 0.000241913726 -2.8584101e-05 -0.000264388429
-0.000417454518 -0.00047809265 -0.000449448852 0.000372787157 7.3367625e-05 -0.000245376802
-0.000495003733 -0.000621184082 -0.000607066695 -0.000463625171 -0.000233366481 1.027674e-05
0.000192340975 0.000265403236 0.000189859508 -0.000116225562 -0.000782681361 -0.001928420282
-0.00361331443 -0.005861530756 -0.008706222673 -0.012164250258 -0.016135796088 -0.020320076196
-0.024226938404 -0.027277566456 -0.028955684707 -0.028955684707 -0.027277566456 -0.024226938404
-0.020320076196 -0.016135796088 -0.012164250258 -0.008706222673 -0.005861530756 -0.00361331443
-0.001928359215 -0.000782621957 -0.000116156349 0.000189934979 0.00026547898 0.000192414178
1.0347655e-05 -0.000233300772 -0.000463554829 -0.000606998972 -0.000621140641 -0.000494982844
0.000857772409 0.000353546491 -0.000215697834 -0.000684461944 -0.000939486677 -0.000953562509
-0.000778351179 -0.000514532629 -0.000266058391 -9.9021968e-05 -4.7159647e-05 -0.000166389894
-0.000569639376 -0.001388238968 -0.002712811434 -0.004606487914 -0.007172650298 -0.010556788035
-0.01482943352 -0.019844799906 -0.02519416901 -0.030248547327 -0.034252802029 -0.036484701384
-0.036484701384 -0.034252802029 -0.030248547327 -0.02519416901 -0.019844799906 -0.01482943352
-0.010556788035 -0.007172360622 -0.004606205047 -0.002712756318 -0.001388212177 -0.000569587385
-0.000166326944 -4.7093898e-05 -9.8953763e-05 -0.000265990328 -0.000514467039 -0.000778288027
-0.000953522002 -0.000939447727 -0.000684443226 0.001484408182 0.000691077254 -0.000232686038
-0.001003902674 -0.001421931803 -0.00144877494 -0.001197434596 -0.000848056292 -0.000546692878
-0.000358078149 -0.000307196276 -0.000455523643 -0.00091513886 -0.001792313027 -0.003164207332
-0.005145393908 -0.007943117961 -0.011777606452 -0.016719129606 -0.022604572442 -0.029039811239
-0.035366383757 -0.040600957974 -0.043616443816 -0.043616443816 -0.040600957974 -0.035366383757
-0.029039811239 -0.022604843913 -0.016719129606 -0.011777606452 -0.007943117961 -0.005145393908
-0.003164207332 -0.001792265666 -0.000915092934 -0.000455479184 -0.000307131821 -0.000358015936
-0.000546652893 -0.000847998529 -0.001197397541 -0.001448757124 -0.001421914682 -0.001003902674
0.002140049157 0.001035571114 -0.000270934887 -0.001367956247 -0.00195899863 -0.001992618419
-0.001643698393 -0.001174681326 -0.000781810095 -0.000541352304 -0.000473057505 -0.000624945023
-0.001079394209 -0.001911145645 -0.003206260183 -0.005140781188 -0.00798170471 -0.011961025229
-0.017173808007 -0.023608331176 -0.031110539296 -0.039076416557 -0.046127203228 -0.050363754794
-0.050363754794 -0.046127203228 -0.039076416557 -0.031110539296 -0.023608331176 -0.017174038463
-0.011961025229 -0.00798170471 -0.005140781188 -0.003206260183 -0.001911125261 -0.001079374452
-0.000624906793 -0.000473020575 -0.000541298865 -0.000781758605 -0.001174648284 -0.001643698393
-0.001992465716 -0.00195899863 -0.001367956247 0.002560047146 0.001259098893 -0.000293322725
-0.001603144928 -0.002310254863 -0.002350525833 -0.001934184644 -0.001373587518 -0.000901906459
-0.000611213221 -0.000517624114 -0.000643947333 -0.001032529424 -0.001732504973 -0.002841225152
-0.004558940254 -0.007143539945 -0.010815089818 -0.015785871112 -0.022372562568 -0.030803279623
-0.040527284089 -0.049620099565 -0.05524998338 -0.05524998338 -0.049620099565 -0.040527284089
-0.030803279623 -0.022372562568 -0.015785871112 -0.010815089818 -0.007143539945 -0.004558940254
-0.002841225152 -0.00173233575 -0.001032496636 -0.000643915625 -0.000517593498 -0.00061116894
-0.000901863812 -0.001373450748 -0.001934053165 -0.002350525833 -0.002310254863 -0.001603144928
0.002460938314 0.001221436494 -0.000265118382 -0.00152530606 -0.0022104319 -0.002254109353
-0.001853693013 -0.001306987582 -0.000840722975 -0.000548869291 -0.000444117974 -0.000527016486
-0.000808262429 -0.001318572454 -0.002148730308 -0.00347029328 -0.005484809607 -0.00840194052
-0.012575558042 -0.018617861367 -0.027032641197 -0.037303599382 -0.047203966999 -0.05341445095
-0.05341445095 -0.047203966999 -0.037303599382 -0.027034199274 -0.018617861367 -0.012575558042
-0.008402088624 -0.005484809607 -0.00347029328 -0.002148730308 -0.001318559136 -0.000808236634
-0.00052699155 -0.000444081873 -0.000548834494 -0.000840689476 -0.001306987582 -0.001853589813
-0.002254109353 -0.0022104319 -0.001525397313 0.001775398577 0.000887016445 -0.000181818201
-0.001091658206 -0.001590133683 -0.001626361287 -0.001338449212 -0.000939377941 -0.000594476118
-0.000375504632 -0.000290768325 -0.000331447629 -0.00049370496 -0.000794539407 -0.001296705525
-0.002109859118 -0.003360497251 -0.0052213085 -0.008057444931 -0.012490306263 -0.019019435299
-0.027225155821 -0.035235149624 -0.040282578379 -0.040282578379 -0.035235149624 -0.027225155821
-0.019019435299 -0.012490306263 -0.008057444931 -0.0052213085 -0.003360497251 -0.002109859118
-0.001296705525 -0.000794529809 -0.000493695668 -0.000331429668 -0.000290750994 -0.000375487933
-0.000594452011 -0.000939300677 -0.001338449212 -0.001626361287 -0.001590202059 -0.001091658206
0.000804835537 0.000404057266 -7.9077645e-05 -0.000491543395 -0.000718993002 -0.000737177789
-0.000607382991 -0.000425277698 -0.000266453488 -0.000164594582 -0.0001233231 -0.000136341513
-0.000199277135 -0.000318764502 -0.000522125082 -0.000854737201 -0.001370301253 -0.002158626706
-0.003423991664 -0.00550376238 -0.008659923446 -0.012678335301 -0.016616852152 -0.019101005995
-0.019101005995 -0.016616852152 -0.012678335301 -0.008660602975 -0.005503829388 -0.003424057525
-0.002158626706 -0.001370364311 -0.000854737201 -0.000522125082 -0.000318764502 -0.000199271527
-0.000136330676 -0.000123312646 -0.000164579474 -0.000266438951 -0.000425268381 -0.000607382991
-0.000737177789 -0.000718993002 -0.000491582905 0.000100334837 5.0504657e-05 -9.622232e-06
-6.1037741e-05 -8.9484314e-05 -9.1881522e-05 -7.575998e-05 -5.2998137e-05 -3.3054293e-05
-2.0196569e-05 -1.4873614e-05 -1.6171648e-05 -2.3408299e-05 -3.7360788e-05 -6.13501e-05
-0.000100774193 -0.000162197811 -0.000257720188 -0.000415402287 -0.000680793585 -0.001088619802
-0.00161010842 -0.002121817185 -0.002444630234 -0.002444630234 -0.002121840326 -0.001610131395
-0.001088642534 -0.000680815999 -0.000415424316 -0.000257720188 -0.000162204137 -0.000100778302
-6.1352097e-05 -3.7358851e-05 -2.3406424e-05 -1.6168749e-05 -1.4869945e-05 -2.0193203e-05
-3.3049435e-05 -5.2995024e-05 -7.5758485e-05 -9.1880087e-05 -8.948569e-05 -6.104038e-05
0.000100326702 5.0499807e-05 -9.621473e-06 -6.1031142e-05 -8.9471927e-05 -9.1867174e-05
-7.5748021e-05 -5.2988798e-05 -3.3046196e-05 -2.0193203e-05 -1.4871342e-05 -1.6170742e-05
-2.3408299e-05 -3.7360788e-05 -6.1352097e-05 -0.000100774193 -0.000162197811 -0.000257720188
-0.000415402287 -0.000680793585 -0.001088619802 -0.001610085445 -0.002121794044 -0.002444630234
-0.002444397987 -0.002121770903 -0.001610062469 -0.00108857434 -0.000680771171 -0.000415402287
-0.000257698604 -0.000162191484 -0.000100770083 -6.13501e-05 -3.7360788e-05 -2.3410174e-05
-1.617364e-05 -1.4875012e-05 -2.0196569e-05 -3.3051054e-05 -5.2991911e-05 -7.5749516e-05
-9.1868609e-05 -8.9471927e-05 -6.1028503e-05 0.00080480074 0.000404020959 -7.9081433e-05
-0.000491543395 -0.000718951802 -0.000737177789 -0.000607338248 -0.000425249748 -0.000266434105
-0.000164579474 -0.000123317873 -0.000136341513 -0.000199277135 -0.000318770296 -0.000522125082
-0.000854737201 -0.001370301253 -0.002158626706 -0.003423991664 -0.00550376238 -0.008659923446
-0.012678335301 -0.016616852152 -0.019101005995 -0.019101005995 -0.016616852152 -0.012678335301
-0.008659923446 -0.005503695373 -0.003423991664 -0.002158562169 -0.001370301253 -0.000854737201
-0.000522125082 -0.000318770296 -0.000199282743 -0.000136346931 -0.000123328328 -0.000164594582
-0.000266443796 -0.000425263723 -0.000607382991 -0.000737177789 -0.000718951802 -0.000491543395
0.00177534079 0.000886956161 -0.000181843354 -0.001091658206 -0.001590133683 -0.001626290027
-0.001338449212 -0.000939300677 -0.000594452011 -0.000375487933 -0.000290759659 -0.000331438648
-0.00049370496 -0.000794539407 -0.001296705525 -0.002109859118 -0.003360497251 -0.0052213085
-0.008057444931 -0.012490306263 -0.019019435299 -0.027225155821 -0.035235149624 -0.040282578379
-0.040282578379 -0.035235149624 -0.027225155821 -0.019019435299 -0.012490306263 -0.008057335908
-0.005221201655 -0.003360497251 -0.002109859118 -0.001296705525 -0.000794549005 -0.000493723545
-0.000331456609 -0.00029077699 -0.000375512982 -0.000594468082 -0.000939300677 -0.001338449212
-0.001626290027 -0.001590133683 -0.001091658206 0.002460857846 0.001221352569 -0.000265170895
-0.001525397313 -0.002210336783 -0.00225401025 -0.001853589813 -0.001306987582 -0.000840700642
-0.000548846093 -0.000444105941 -0.000527004018 -0.000808262429 -0.001318585771 -0.002148730308
-0.00347029328 -0.005484809607 -0.00840194052 -0.012575558042 -0.018617861367 -0.027032641197
-0.037303599382 -0.047203966999 -0.05341445095 -0.05341445095 -0.047203966999 -0.037303599382
-0.027032641197 -0.018617861367 -0.01257540695 -0.00840194052 -0.005484809607 -0.00347029328
-0.002148730308 -0.001318585771 -0.000808275326 -0.000527028954 -0.000444130008 -0.00054888089
-0.000840722975 -0.001306987582 -0.001853589813 -0.002254109353 -0.002210336783 -0.00152530606
0.002560047146 0.001258991791 -0.000293389719 -0.001603144928 -0.002310254863 -0.002350525833
-0.001934184644 -0.001373450748 -0.000901892243 -0.000611198461 -0.000517624114 -0.000643947333
-0.001032529424 -0.001732504973 -0.002841225152 -0.004558940254 -0.007143539945 -0.010815089818
-0.015785871112 -0.022372562568 -0.030803279623 -0.040527284089 -0.049620099565 -0.05524998338
-0.05524998338 -0.049620099565 -0.040527284089 -0.030803279623 -0.022372562568 -0.015785871112
-0.010815089818 -0.007143539945 -0.004558940254 -0.002841225152 -0.001732504973 -0.001032562212
-0.000643979041 -0.00051765473 -0.000611242742 -0.000901920675 -0.001373587518 -0.001934184644
-0.002350525833 -0.002310254863 -0.001603144928 0.002139924713 0.001035493294 -0.000271002468
-0.001367998494 -0.00195899863 -0.001992618419 -0.001643698393 -0.001174664805 -0.000781792932
-0.000541334491 -0.000473057505 -0.000624945023 -0.001079413965 -0.00191116603 -0.003206260183
-0.005140781188 -0.00798170471 -0.011961025229 -0.017173808007 -0.023608331176 -0.031110539296
-0.039076416557 -0.046127203228 -0.050363754794 -0.050363754794 -0.046127203228 -0.039076416557
-0.031110539296 -0.023608331176 -0.017173808007 -0.011961025229 -0.00798170471 -0.005140781188
-0.003206260183 -0.001911186414 -0.001079453479 -0.000625002368 -0.000473112901 -0.000541387929
-0.000781844422 -0.001174714368 -0.001643698393 -0.001992618419 -0.00195899863 -0.001367984412
0.001484408182 0.00069101661 -0.000232749208 -0.001003935566 -0.001421948924 -0.001448792755
-0.001197434596 -0.000848037037 -0.000546692878 -0.000358078149 -0.000307196276 -0.000455523643
-0.000915161824 -0.001792336707 -0.003164207332 -0.005145393908 -0.007943117961 -0.011777606452
-0.016719129606 -0.022604572442 -0.029039811239 -0.035366383757 -0.040600957974 -0.043616443816
-0.043616443816 -0.040600957974 -0.035366383757 -0.029039811239 -0.022604572442 -0.016719129606
-0.011777606452 -0.007943117961 -0.005145393908 -0.003164207332 -0.001792360388 -0.000915207751
-0.000455590331 -0.000307239247 -0.000358140362 -0.000546732863 -0.0008480948 -0.001197471651
-0.001448810571 -0.001421966045 -0.001003952012 0.00085775582 0.000353529217 -0.000215715818
-0.000684461944 -0.000939486677 -0.000953562509 -0.000778330128 -0.000514510765 -0.000266058391
-9.9017264e-05 -4.7164518e-05 -0.000166402483 -0.000569665371 -0.001388265759 -0.002712838992
-0.004606487914 -0.007172650298 -0.010556788035 -0.01482943352 -0.019844799906 -0.02519416901
-0.030248547327 -0.034252802029 -0.036484701384 -0.036484701384 -0.034252802029 -0.030248547327
-0.02519416901 -0.019844799906 -0.01482943352 -0.010556788035 -0.007172650298 -0.004606487914
-0.00271286655 -0.001388319342 -0.000569717362 -0.000166462915 -4.7227832e-05 -9.9080765e-05
-0.000266103767 -0.000514576355 -0.000778393281 -0.000953603017 -0.000939525628 -0.000684480663
0.000372787157 7.3367625e-05 -0.000245376802 -0.000495003733 -0.000621162362 -0.000607044121
-0.000463601724 -0.000233354313 1.0284563e-05 0.000192340975 0.000265397826 0.000189845532
-0.000116251517 -0.000782711064 -0.001928450815 -0.00361331443 -0.005861530756 -0.008706222673
-0.012164250258 -0.016135796088 -0.020320076196 -0.024226938404 -0.027277566456 -0.028955684707
-0.028955684707 -0.027277566456 -0.024226938404 -0.020320076196 -0.016135796088 -0.012164250258
-0.008706222673 -0.005861530756 -0.00361331443 -0.001928511881 -0.000782770468 -0.000116314962
0.000189775652 0.000265324787 0.000192273001 1.021718e-05 -0.000233415153 -0.000463648619
-0.000607089269 -0.000621205803 -0.000495024622 8.853286e-06 -0.00016728025 -0.000337336307
-0.000449471803 -0.000478116499 -0.000417504055 -0.000264439846 -2.8642762e-05 0.000241844649
0.000468887738 0.000588226552 0.000568500685 0.000370550192 -9.8708391e-05 -0.000966491788
-0.002323872829 -0.004185677342 -0.006513210117 -0.009243074215 -0.012266417502 -0.015371915299
-0.018228596713 -0.020439381212 -0.021649393214 -0.021649393214 -0.020439381212 -0.018228596713
-0.015371915299 -0.012266417502 -0.009243074215 -0.006513210117 -0.004185677342 -0.00232394108
-0.000966558362 -9.8779677e-05 0.000370455745 0.000568409076 0.00058813783 0.00046880193
0.000241772808 -2.8706756e-05 -0.000264491264 -0.000417553593 -0.000478164196 -0.000449494754
-0.000299180346 -0.000406565011 -0.000497683081 -0.000531603568 -0.000488551694 -0.000370967956
-0.000181679616 7.946704e-05 0.000387828037 0.000678020033 0.000874707498 0.00093544397
0.000844189352 0.00055999996 -9.150356e-06 -0.000966474773 -0.002361557455 -0.004163812913
-0.006280943038 -0.008578590263 -0.010875745624 -0.012939740492 -0.014511632157 -0.015364081616
-0.015364081616 -0.014511632157 -0.012939740492 -0.010875745624 -0.008578590263 -0.006280943038
-0.004163812913 -0.002361594963 -0.000966548155 -9.226997e-06 0.0005598953 0.000844087589
0.00093534519 0.000874611758 0.000677927365 0.000387768312 7.9397823e-05 -0.000181740838
-0.000371021618 -0.000488603401 -0.000531628466 -0.000601719314 -0.000673912178 -0.000726779008
-0.00072100129 -0.000630066215 -0.000457464366 -0.000220259054 7.3535241e-05 0.000415584748
0.00076838864 0.001064200785 0.001241238457 0.001272000129 0.001145156545 0.000825892966
0.000246127094 -0.000659400102 -0.001906979131 -0.003442834564 -0.005149841553 -0.006865061581
-0.00839811373 -0.009556703678 -0.010181822609 -0.010181822609 -0.009556703678 -0.00839811373
-0.006865061581 -0.005149841553 -0.003442917183 -0.001907060386 -0.000659479821 0.000246041257
0.000825778635 0.001145082242 0.001271891677 0.001241168219 0.001064098589 0.000768322641
0.000415488961 7.3467347e-05 -0.000220318657 -0.00045752188 -0.000630121677 -0.000721054743
-0.00093285936 -0.000997352363 -0.00103642555 -0.001013518341 -0.000894081552 -0.000675958778
-0.000387400474 -5.5263511e-05 0.00031311524 0.000709814594 0.0010970376 0.001410894112
0.001596492486 0.001631433349 0.001511965634 0.001220769816 0.000717495198 -3.4960768e-05
-0.001030688191 -0.002200465626 -0.003420424091 -0.004536884742 -0.005393713306 -0.005860395098
-0.005860395098 -0.005393713306 -0.004536884742 -0.003420513147 -0.002200553704 -0.001030775077
-3.5044983e-05 0.000717411266 0.001220687604 0.001511845094 0.001631354952 0.001596377968
0.001410819886 0.00109692951 0.00070974473 0.000313044202 -5.5325686e-05 -0.000387463728
-0.000676019865 -0.000894140507 -0.001013546774 -0.001318428202 -0.001408149922 -0.001455548936
-0.001429336975 -0.001294252742 -0.001041040112 -0.000700082595 -0.000317057389 8.4296077e-05
0.000507836922 0.000952476035 0.001381891224 0.00173351483 0.001956408239 0.002032596607
0.001961214559 0.001731411203 0.001322721977 0.000733695809 5.547613e-06 -0.000780808847
-0.001522140465 -0.002106905539 -0.002431914221 -0.002431914221 -0.002106905539 -0.001522187257
-0.000780901679 5.469083e-06 0.000733605162 0.001322588107 0.001731323537 0.001961128631
0.002032512554 0.001956285145 0.00173343485 0.001381813399 0.000952400418 0.000507763546
8.4232071e-05 -0.000317109032 -0.000700115899 -0.001041072302 -0.001294283835 -0.001429366991
-0.001762308893 -0.001920510974 -0.002007045677 -0.001992606848 -0.001850499447 -0.001571435623
-0.001180620842 -0.000731763466 -0.000272203999 0.000186849048 0.000661267988 0.001153914007
0.001629445045 0.002030328378 0.002309984211 0.002444889107 0.002424143756 0.002246252014
0.001930532973 0.00152043883 0.001068925376 0.000629508179 0.000266049922 5.5280365e-05
5.5265723e-05 0.000266010977 0.000629411324 0.001068829271 0.001520343707 0.001930439051
0.002246159491 0.002424052816 0.002444755311 0.00230985324 0.002030200408 0.00162936183
0.001153832965 0.000661189176 0.000186787813 -0.000272255976 -0.000731799445 -0.001180655676
-0.001571435623 -0.001850532025 -0.001992606848 -0.002250597973 -0.002534753453 -0.002704483958
-0.002719554437 -0.002569922207 -0.002264632606 -0.001829297514 -0.001311597952 -0.000770874376
-0.000246170136 0.000263852377 0.000781492177 0.001310742255 0.001820590603 0.002261445018
0.00258919556 0.002778809401 0.002833089724 0.00278294411 0.002667059361 0.002504222825
0.002299727453 0.002086921779 0.001944146899 0.001944146899 0.002086871705 0.002299627807
0.002504123922 0.002666961431 0.002782847371 0.002832994375 0.002778715625 0.002589057499
0.002261309772 0.001820458354 0.001310656186 0.000781408285 0.000263787054 -0.00024621776
-0.00077091291 -0.001311635328 -0.001829297514 -0.002264632606 -0.002569888273 -0.002719554437
-0.002786964115 -0.003282440149 -0.003596828848 -0.003654889165 -0.003469575127 -0.003102788499
-0.002610150111 -0.00203213784 -0.001414519349 -0.00080735396 -0.000236554278 0.000308689252
0.000851079269 0.001392343895 0.001907668746 0.002365840374 0.002754990559 0.003094067659
0.003414312555 0.003713600925 0.003931318617 0.003997243981 0.003923376004 0.003826461115
0.003826461115 0.003923324763 0.003997141992 0.00393121736 0.003713500626 0.003414163868
0.00309392103 0.002754846261 0.002365745891 0.001907576123 0.001392253254 0.000850990712
0.00030862014 -0.000236608981 -0.0008073949 -0.001414519349 -0.00203213784 -0.002610150111
-0.00310275219 -0.003469539963 -0.003654889165 -0.003355934915 -0.004194004027 -0.004749781403
-0.004871351989 -0.004595209088 -0.004081307585 -0.003472430801 -0.002826831862 -0.002158285424
-0.001491017327 -0.000858125933 -0.000270015821 0.000288824027 0.000832575333 0.001360078994
0.001876652949 0.002426890907 0.003091176719 0.003919555142 0.004841151721 0.005652308559
0.006147721693 0.006297394574 0.006274912758 0.006274912758 0.006297394574 0.006147721693
0.005652308559 0.004840998329 0.003919403476 0.003091076955 0.002426743552 0.001876556401
0.001359984278 0.000832482572 0.000288746931 -0.000270073383 -0.000858169105 -0.001491017327
-0.002158285424 -0.002826792126 -0.003472392225 -0.004081307585 -0.004595209088 -0.004871351989