# Generated by pySCP 
# 2024-01-22 22:15:09.150594
CRYSTAL
PRIMVEC
4.1863376 0.0 0.0
0.0 4.1863376 0.0
0.0 0.0 4.1863376
CONVVEC
4.1863376 0.0 0.0
0.0 4.1863376 0.0
0.0 0.0 4.1863376
PRIMCOORD
8 1
O 0.0 0.0 0.0
O 0.0 2.0931688 2.0931688
O 2.0931688 0.0 2.0931688
O 2.0931688 2.0931688 0.0
Ni 0.0 0.0 2.0931688
Ni 2.0931688 0.0 0.0
Ni 0.0 2.0931688 0.0
Ni 2.0931688 2.0931688 2.0931688
BEGIN_BLOCK_DATAGRID_3D
3D_field
BEGIN_DATAGRID_3D_UNKNOWN
45 45 45
-0.09303 -0.09303 -0.09303
4.0933079 0.0 0.0
0.0 4.0933079 0.0
0.0 0.0 4.0933079
-9.7060789e-05 -0.000905577678 -0.001436118448 -0.001526314249 -0.001255169397 -0.000838711733
-0.000459980096 -0.000187798083 -8.989784e-06 0.00010717987 0.00017856493 0.00021334853
0.000218313499 0.000199850192 0.000161996554 0.000107002872 3.9801146e-05 -2.6703794e-05
-7.3096231e-05 -8.5213775e-05 -6.6459219e-05 -3.5827246e-05 -1.2006793e-05 -1.216381e-06
-1.216381e-06 -1.2006793e-05 -3.5827246e-05 -6.6459219e-05 -8.5213775e-05 -7.3096231e-05
-2.6703794e-05 3.9801146e-05 0.000107002872 0.000161998773 0.000199852896 0.000218316732
0.00021334853 0.00017856493 0.00010717987 -8.987483e-06 -0.000187798083 -0.000459980096
-0.000838711733 -0.001255169397 -0.001526314249 0.000859454289 4.8655016e-05 -0.000600562184
-0.000880859549 -0.000810668472 -0.000561258825 -0.000301426673 -0.000108291419 1.6603562e-05
9.3365735e-05 0.000134851429 0.00014724722 0.000136626496 0.000109848741 7.3281147e-05
3.4251397e-05 5.046557e-06 3.284562e-06 4.1670529e-05 0.000111704663 0.000180515698
0.000213454748 0.000205224919 0.000184961691 0.000184961691 0.000205224919 0.000213454748
0.000180515698 0.000111704663 4.1670529e-05 3.284562e-06 5.046557e-06 3.4251397e-05
7.3281147e-05 0.000109848741 0.000136626496 0.00014724722 0.000134851429 9.3365735e-05
1.6604971e-05 -0.000108291419 -0.000301420471 -0.000561251827 -0.000810668472 -0.000880859549
0.001534426971 0.000816779044 0.000146886698 -0.000257417602 -0.00036239326 -0.000281070568
-0.000148408254 -3.8515719e-05 3.3648361e-05 7.466005e-05 9.0308182e-05 8.453485e-05
6.2842032e-05 3.2183694e-05 3.83152e-07 -2.1553632e-05 -1.6791712e-05 3.2245153e-05
0.000126543406 0.000233535121 0.000296101954 0.000274794335 0.000189626989 0.000113818196
0.000113820399 0.000189629143 0.000274794335 0.000296101954 0.000233535121 0.000126543406
3.2245153e-05 -1.6791712e-05 -2.1553632e-05 3.83152e-07 3.2184194e-05 6.2843075e-05
8.453485e-05 9.031045e-05 7.466005e-05 3.3649093e-05 -3.8515278e-05 -0.000148408254
-0.000281070568 -0.00036239326 -0.000257417602 0.001712325995 0.001147742061 0.000560265934
0.000140757203 -5.2330972e-05 -8.1543843e-05 -4.2090104e-05 4.440604e-06 3.6504399e-05
5.0644846e-05 4.7255553e-05 2.8806595e-05 3.41496e-07 -3.1655169e-05 -5.9243662e-05
-7.0534587e-05 -4.8986531e-05 1.7319145e-05 0.000115244384 0.00019320799 0.000182181434
5.1524852e-05 -0.000145862032 -0.000293204768 -0.000293204768 -0.00014585888 5.1530969e-05
0.000182184352 0.000193210719 0.000115246874 1.7320026e-05 -4.8986531e-05 -7.0534587e-05
-5.9243662e-05 -3.1655169e-05 3.41496e-07 2.8806595e-05 4.7255553e-05 5.0646772e-05
3.6504399e-05 4.440604e-06 -4.2090527e-05 -8.1543843e-05 -5.2335125e-05 0.00014075038
0.001457876838 0.00105816203 0.000616186653 0.000272158073 8.1329086e-05 1.3174417e-05
7.217082e-06 1.8741456e-05 2.6921542e-05 2.422766e-05 8.913025e-06 -1.6887448e-05
-4.8547335e-05 -8.0466984e-05 -0.000105700785 -0.000114052771 -9.3242108e-05 -3.985763e-05
2.1427663e-05 3.0238724e-05 -8.0639066e-05 -0.000325279029 -0.000623279026 -0.000829684056
-0.000829684056 -0.000623238432 -0.000325271087 -8.0635228e-05 3.0242747e-05 2.1430063e-05
-3.985763e-05 -9.3242108e-05 -0.000114052771 -0.000105700785 -8.0466984e-05 -4.8548317e-05
-1.6887448e-05 8.913025e-06 2.422766e-05 2.6921542e-05 1.8740964e-05 7.216098e-06
1.3171936e-05 8.1324066e-05 0.00027215214 0.001009857826 0.000750719896 0.000461856439
0.000229700824 9.1389764e-05 3.1881692e-05 1.5801914e-05 1.4345605e-05 1.1492606e-05
1.4217e-07 -2.1075614e-05 -4.9701669e-05 -8.155851e-05 -0.000112003553 -0.000135485826
-0.000144706406 -0.000132901916 -0.000103768395 -8.6488791e-05 -0.000138285253 -0.000314634627
-0.000615004922 -0.000949803655 -0.001173235295 -0.001173235295 -0.000949803655 -0.000615004922
-0.000314629969 -0.000138280763 -8.6488791e-05 -0.000103768395 -0.000132901916 -0.000144706406
-0.000135485826 -0.000112003553 -8.155851e-05 -4.9701669e-05 -2.10763e-05 1.4217e-07
1.1492606e-05 1.4345298e-05 1.5800968e-05 3.1879429e-05 9.1385629e-05 0.000229695758
0.000584219465 0.000428793288 0.000262717376 0.000130979414 5.2091474e-05 1.7341713e-05
7.155662e-06 4.419814e-06 -1.671166e-06 -1.6000702e-05 -3.8605084e-05 -6.6646823e-05
-9.640417e-05 -0.000123864135 -0.000144530813 -0.000153779505 -0.000149345379 -0.000138232683
-0.000146366202 -0.000218518347 -0.000394228934 -0.000666412044 -0.000957743795 -0.001148667336
-0.001148667336 -0.000957743795 -0.000666412044 -0.00039422357 -0.000218518347 -0.000146366202
-0.000138232683 -0.000149345379 -0.000153783652 -0.000144530813 -0.000123864135 -9.640417e-05
-6.6649026e-05 -3.8606654e-05 -1.6000702e-05 -1.671166e-06 4.419619e-06 7.155067e-06
1.7340294e-05 5.2088193e-05 0.000130975185 0.000270495486 0.000187318999 0.000105078203
4.3960887e-05 1.0611066e-05 -7.5092e-07 -9.38942e-07 -1.71226e-07 -5.448029e-06
-1.9351083e-05 -4.0596656e-05 -6.6136653e-05 -9.2533015e-05 -0.000115834747 -0.000131845862
-0.000137715696 -0.000134019939 -0.000127955785 -0.000137816046 -0.000192398299 -0.000315983931
-0.000502224523 -0.000699155143 -0.000827467296 -0.000827467296 -0.000699155143 -0.000502224523
-0.000315983931 -0.000192398299 -0.000137816046 -0.000127955785 -0.000134019939 -0.000137715696
-0.000131845862 -0.000115838806 -9.2536581e-05 -6.6136653e-05 -4.0596656e-05 -1.9351083e-05
-5.448029e-06 -1.71192e-07 -9.39201e-07 -7.51765e-07 1.0609096e-05 4.3957463e-05
6.0593328e-05 2.9314879e-05 2.022959e-06 -1.3291733e-05 -1.5374463e-05 -8.255778e-06
1.470678e-06 7.037773e-06 3.988005e-06 -8.232738e-06 -2.7217977e-05 -4.9763513e-05
-7.2408325e-05 -9.0704417e-05 -0.000100154693 -9.8823389e-05 -8.8922837e-05 -7.6792012e-05
-7.3405489e-05 -9.3994351e-05 -0.000151421439 -0.000243051771 -0.000342321246 -0.000407773461
-0.000407773461 -0.000342321246 -0.000243051771 -0.000151421439 -9.3994351e-05 -7.3405489e-05
-7.6792012e-05 -8.8922837e-05 -9.8823389e-05 -0.000100154693 -9.0709157e-05 -7.2408325e-05
-4.9767261e-05 -2.7218292e-05 -8.232987e-06 3.988005e-06 7.037872e-06 1.47082e-06
-8.255778e-06 -1.5375472e-05 -1.3293858e-05 -7.7931494e-05 -6.952708e-05 -5.8365069e-05
-4.216968e-05 -2.1737055e-05 -1.39697e-07 1.7863138e-05 2.7390282e-05 2.6038751e-05
1.5084019e-05 -2.100346e-06 -2.2013717e-05 -4.0802941e-05 -5.3344095e-05 -5.4744218e-05
-4.3520651e-05 -2.2682493e-05 2.121803e-06 2.4308431e-05 3.6504649e-05 3.2113915e-05
1.0339429e-05 -1.950309e-05 -4.0960579e-05 -4.0960579e-05 -1.9502416e-05 1.0339429e-05
3.2113915e-05 3.6503988e-05 2.4307779e-05 2.12059e-06 -2.2683734e-05 -4.3521846e-05
-5.4745922e-05 -5.3344095e-05 -4.0804412e-05 -2.2015039e-05 -2.101113e-06 1.5083699e-05
2.6038751e-05 2.7390282e-05 1.7863138e-05 -1.39697e-07 -2.1737055e-05 -4.2171607e-05
-0.000164767675 -0.000125208009 -8.5409865e-05 -4.6151683e-05 -9.12542e-06 2.3054111e-05
4.6610377e-05 5.8165233e-05 5.7154694e-05 4.6300401e-05 2.9727905e-05 1.1512345e-05
-3.724604e-06 -1.0291099e-05 -3.346847e-06 1.8214405e-05 5.1318514e-05 9.1003464e-05
0.000132383102 0.000170543009 0.000200411016 0.000218678691 0.000226266129 0.000227868765
0.000227868765 0.000226266129 0.000218678691 0.000200411016 0.000170543009 0.000132383102
9.1003464e-05 5.1316553e-05 1.8212497e-05 -3.348806e-06 -1.0292844e-05 -3.726344e-06
1.151085e-05 2.972657e-05 4.6300401e-05 5.7154694e-05 5.8165233e-05 4.6610377e-05
2.3054111e-05 -9.12542e-06 -4.6152924e-05 -0.000209106366 -0.0001456654 -8.5150521e-05
-2.9869354e-05 1.8256995e-05 5.6966677e-05 8.325733e-05 9.5053558e-05 9.3148242e-05
8.1017141e-05 6.3245663e-05 4.48427e-05 3.1649511e-05 2.9819061e-05 4.3600767e-05
7.3514851e-05 0.0001169066 0.000169810655 0.000227815375 0.000285463914 0.000336374314
0.000375203867 0.000399799133 0.000411219732 0.000411219732 0.000399799133 0.000375203867
0.000336374314 0.000285463914 0.000227815375 0.000169810655 0.000116899856 7.3514851e-05
4.3598831e-05 2.9817199e-05 3.1647158e-05 4.4841058e-05 6.3245663e-05 8.1017141e-05
9.3148242e-05 9.5053558e-05 8.325733e-05 5.6966677e-05 1.8256995e-05 -2.9869354e-05
-0.000218963347 -0.000138603946 -6.5009178e-05 -3.63851e-07 5.3900146e-05 9.5810173e-05
0.000122786307 0.000133563688 0.000129559961 0.000114357843 9.283781e-05 7.1277702e-05
5.716097e-05 5.7214435e-05 7.4906204e-05 0.000109956907 0.000160034439 0.000222115198
0.000291910261 0.000362727146 0.000426347093 0.000475894075 0.000508234585 0.000523732667
0.000523732667 0.000508234585 0.000475894075 0.000426347093 0.000362727146 0.000291910261
0.000222115198 0.000160027612 0.000109956907 7.4906204e-05 5.7211837e-05 5.7158477e-05
7.1271821e-05 9.283781e-05 0.000114357843 0.000129559961 0.000133563688 0.000122786307
9.5810173e-05 5.3900146e-05 -3.63851e-07 -0.000202189123 -0.000112570168 -3.3702043e-05
3.4214917e-05 9.0777958e-05 0.000133787788 0.000160224295 0.000168801692 0.000160993704
0.000140285274 0.000112042347 8.4068763e-05 6.5633118e-05 6.4151637e-05 8.2542258e-05
0.000119765616 0.000173336436 0.000240427927 0.000316477103 0.000393940457 0.000463675731
0.000518211717 0.000554127034 0.000571522701 0.000571522701 0.000554127034 0.000518211717
0.000463669414 0.000393940457 0.000316470518 0.000240427927 0.000173336436 0.000119765616
8.2542258e-05 6.4148961e-05 6.5626622e-05 8.4068763e-05 0.000112036531 0.000140285274
0.000160993704 0.000168801692 0.000160224295 0.000133787788 9.0777958e-05 3.4214917e-05
-0.000164009278 -7.5266502e-05 -4.03511e-07 6.4661875e-05 0.000120830454 0.000164395966
0.000190231693 0.000195831138 0.000182311956 0.000153459302 0.000115757263 7.8818881e-05
5.346866e-05 4.7684812e-05 6.4116741e-05 0.000101247208 0.000156110391 0.000225168696
0.000303003051 0.000381589842 0.000451943691 0.00050707198 0.000543717193 0.000561680566
0.000561680566 0.000543717193 0.00050707198 0.000451943691 0.000381589842 0.000303003051
0.000225162216 0.000156110391 0.000101247208 6.4113328e-05 4.7682092e-05 5.3465989e-05
7.8818881e-05 0.000115757263 0.000153453619 0.000182311956 0.000195831138 0.000190231693
0.000164395966 0.000120830454 6.4661875e-05 -0.000107472784 -3.4996219e-05 2.2756468e-05
7.7832081e-05 0.00013256412 0.000179150935 0.000207259374 0.00021117768 0.000191248654
0.000152269706 0.0001029084 5.5145088e-05 2.1203116e-05 9.271934e-06 2.1728531e-05
5.6861528e-05 0.00011122995 0.000180134799 0.000256852941 0.000332909633 0.000400051794
0.000452437494 0.000487436678 0.000504714929 0.000504714929 0.000487436678 0.000452432388
0.000400046469 0.000332909633 0.000256847067 0.000180134799 0.00011122995 5.6858876e-05
2.1725822e-05 9.269203e-06 2.1200403e-05 5.5142436e-05 0.0001029084 0.000152269706
0.000191248654 0.00021117768 0.000207255227 0.000179150935 0.00013256412 7.7832081e-05
-3.8142765e-05 -4.920083e-06 1.7700544e-05 5.5567006e-05 0.000111906339 0.000169655167
0.000207811819 0.000214653439 0.000189564811 0.000139460937 7.6441706e-05 1.5813007e-05
-2.8372596e-05 -4.7839688e-05 -4.0739139e-05 -9.042047e-06 4.3428818e-05 0.000110806696
0.000184898472 0.000256667905 0.000318633478 0.000366320909 0.000398053057 0.000413766177
0.000413766177 0.000398048827 0.000366320909 0.00031862878 0.000256667905 0.000184898472
0.00011080093 4.3426372e-05 -9.044614e-06 -4.0742464e-05 -4.7842405e-05 -2.8376009e-05
1.5810309e-05 7.6441706e-05 0.000139460937 0.000189564811 0.000214653439 0.000207811819
0.000169651464 0.000111903516 5.5565143e-05 3.047778e-05 -3.598376e-06 -3.4626744e-05
-1.6029811e-05 5.327168e-05 0.00013762573 0.000197395353 0.000212447707 0.00018295903
0.000120221651 4.1043495e-05 -3.517696e-05 -9.179407e-05 -0.000120019518 -0.000118772437
-9.0704865e-05 -4.0229766e-05 2.5639676e-05 9.7233565e-05 0.000164809677 0.00022150454
0.000264089502 0.000291935643 0.000305563462 0.000305563462 0.000291935643 0.000264089502
0.00022150454 0.000164809677 9.7228697e-05 2.5637013e-05 -4.0232649e-05 -9.0704865e-05
-0.000118772437 -0.000120026223 -9.179407e-05 -3.5179682e-05 4.104083e-05 0.000120221651
0.00018295903 0.000212447707 0.000197395353 0.00013762573 5.3268528e-05 -1.6031132e-05
7.8356636e-05 -4.4653393e-05 -0.000136597894 -0.000125629004 -2.0687938e-05 0.000110304111
0.000200356658 0.000221837682 0.000181911534 0.000101035848 1.726557e-06 -9.3130783e-05
-0.000164325234 -0.000202125475 -0.000206186251 -0.000180405047 -0.000130267171 -6.4150592e-05
6.739574e-06 7.1885433e-05 0.000124784851 0.00016314752 0.000187289672 0.000198703013
0.000198703013 0.000187289672 0.000163144554 0.000124781505 7.1881623e-05 6.736976e-06
-6.4150592e-05 -0.000130267171 -0.000180405047 -0.000206192531 -0.00020213206 -0.000164325234
-9.3130783e-05 1.72413e-06 0.000101035848 0.000181911534 0.000221832033 0.000200356658
0.000110299834 -2.0690682e-05 -0.000125631495 9.081059e-05 -0.000120041782 -0.000256165757
-0.000222318383 -5.0535639e-05 0.00014371428 0.000260268762 0.000270800024 0.000201489195
8.9669707e-05 -3.5942398e-05 -0.000151961816 -0.000238765087 -0.000286117502 -0.000294333402
-0.000268815685 -0.000216590577 -0.000147686708 -7.4929553e-05 -9.619853e-06 4.1858908e-05
7.7617383e-05 9.8668771e-05 0.000107859871 0.000107859871 9.86668e-05 7.7617383e-05
4.185621e-05 -9.621786e-06 -7.4929553e-05 -0.000147691133 -0.000216590577 -0.000268821273
-0.000294339473 -0.000286117502 -0.000238771792 -0.000151961816 -3.5944435e-05 8.9669707e-05
0.000201489195 0.000270794208 0.000260268762 0.000143709789 -5.0539297e-05 -0.000222321112
7.1120845e-05 -0.000196357722 -0.000335024 -0.000235590357 3.2177724e-05 0.00029391733
0.000416618064 0.0003833577 0.000254552476 9.3148649e-05 -6.6194734e-05 -0.000204568947
-0.000306263141 -0.000362207384 -0.000373516164 -0.000346894745 -0.000290949707 -0.000217451057
-0.000140707073 -7.2653312e-05 -1.9797429e-05 1.5667923e-05 3.4891e-05 4.2246934e-05
4.2246934e-05 3.4889674e-05 1.5666598e-05 -1.9799128e-05 -7.2656011e-05 -0.000140710419
-0.000217455082 -0.000290949707 -0.000346894745 -0.000373516164 -0.0003622137 -0.000306263141
-0.000204568947 -6.6196779e-05 9.3148649e-05 0.000254552476 0.0003833577 0.000416612701
0.000293912672 3.217427e-05 -0.000235593274 3.8749868e-05 -0.00023735736 -0.000330790006
-0.000130871963 0.000245701604 0.000563945745 0.000664715364 0.000554448052 0.000339023148
0.000112579366 -8.5382646e-05 -0.000245119829 -0.000359302126 -0.000422211217 -0.000435923211
-0.000408022003 -0.000348277637 -0.000269858555 -0.000188124589 -0.000115304725 -5.8180948e-05
-2.0000819e-05 -3.20073e-07 6.355982e-06 6.355982e-06 -3.20643e-07 -2.0001974e-05
-5.8182604e-05 -0.000115306998 -0.000188127556 -0.000269858555 -0.000348282061 -0.000408022003
-0.000435923211 -0.000422211217 -0.000359302126 -0.000245119829 -8.5382646e-05 0.000112579366
0.000339023148 0.000554448052 0.000664715364 0.000563945745 0.000245697633 -0.000130875021
1.3189723e-05 -0.00023575862 -0.000259754148 4.4497076e-05 0.000516395239 0.000871042295
0.00093296022 0.000735959196 0.000430340955 0.000139382932 -9.415009e-05 -0.000271173683
-0.000394265292 -0.000462035507 -0.000477639344 -0.000449007197 -0.000386509218 -0.000304139632
-0.000217749442 -0.000139486081 -7.6441672e-05 -3.3293659e-05 -1.0951541e-05 -3.574524e-06
-3.574524e-06 -1.0951975e-05 -3.3294462e-05 -7.6442998e-05 -0.000139488052 -0.000217749442
-0.000304139632 -0.000386513448 -0.000449007197 -0.000477639344 -0.000462041623 -0.000394265292
-0.000271173683 -9.415009e-05 0.000139382932 0.000430340955 0.000735959196 0.00093296022
0.000870993677 0.000516395239 4.4493924e-05 1.354681e-06 -0.000219178305 -0.000191902773
0.0001791647 0.000706667597 0.00107769608 0.001109554508 0.000854343454 0.000490417826
0.000158627677 -9.663187e-05 -0.000283463715 -0.000411167758 -0.000481443312 -0.000498152366
-0.00046930018 -0.000405454518 -0.000320913568 -0.000231645261 -0.000149620218 -8.211799e-05
-3.4865419e-05 -9.90069e-06 -1.491287e-06 -1.491336e-06 -9.900934e-06 -3.4866039e-05
-8.2119146e-05 -0.000149622033 -0.000231647821 -0.000320913568 -0.000405454518 -0.000469305048
-0.000498152366 -0.000481443312 -0.000411167758 -0.000283463715 -9.663187e-05 0.000158627677
0.000490417826 0.000854404675 0.001109554508 0.00107769608 0.000706667597 0.000179161501
1.354681e-06 -0.000219178305 -0.000191909379 0.000179161501 0.000706667597 0.00107769608
0.001109554508 0.000854404675 0.000490417826 0.000158634432 -9.663187e-05 -0.000283456979
-0.000411167758 -0.000481443312 -0.000498152366 -0.000469305048 -0.000405458647 -0.000320916914
-0.000231652941 -0.000149627479 -8.2124924e-05 -3.4871626e-05 -9.903862e-06 -1.492027e-06
-1.492027e-06 -9.904106e-06 -3.4872247e-05 -8.212608e-05 -0.000149629294 -0.000231655501
-0.00032092026 -0.000405458647 -0.000469305048 -0.000498152366 -0.000481443312 -0.000411167758
-0.000283456979 -9.6625042e-05 0.000158634432 0.000490424343 0.000854404675 0.001109554508
0.00107769608 0.000706667597 0.000179161501 1.3190279e-05 -0.000235769421 -0.000259775686
4.448762e-05 0.000516395239 0.000871042295 0.000933015664 0.000735959196 0.000430353948
0.000139396419 -9.4136433e-05 -0.000271166934 -0.000394258784 -0.000462035507 -0.000477639344
-0.000449012147 -0.000386521908 -0.000304153496 -0.000217765634 -0.000139507763 -7.6464215e-05
-3.3314536e-05 -1.0965876e-05 -3.583551e-06 -3.583795e-06 -1.096631e-05 -3.3315339e-05
-7.6465541e-05 -0.000139507763 -0.000217768333 -0.000304153496 -0.000386521908 -0.000449012147
-0.000477639344 -0.000462035507 -0.000394258784 -0.000271166934 -9.4136433e-05 0.000139396419
0.000430360444 0.000735959196 0.000933015664 0.000871042295 0.000516395239 4.4490772e-05
3.8752959e-05 -0.000237367177 -0.000330790006 -0.000130881138 0.000245701604 0.000563945745
0.000664715364 0.000554472191 0.000339048961 0.000112599523 -8.5362168e-05 -0.000245106284
-0.000359295565 -0.000422205016 -0.000435923211 -0.00040802711 -0.00034829091 -0.000269880743
-0.000188154257 -0.000115338809 -5.8219034e-05 -2.0038953e-05 -3.54127e-07 6.326189e-06
6.326189e-06 -3.5456e-07 -2.0040109e-05 -5.8220689e-05 -0.000115338809 -0.000188154257
-0.000269880743 -0.000348295335 -0.00040802711 -0.000435923211 -0.000422198815 -0.000359289004
-0.000245099512 -8.5355341e-05 0.000112606243 0.000339055414 0.000554478225 0.000664715364
0.000563945745 0.000245705575 -0.000130881138 7.1126903e-05 -0.00019636606 -0.000335024
-0.000235596192 3.218655e-05 0.000293940618 0.000416644884 0.00038339336 0.000254584397
9.3182035e-05 -6.6168831e-05 -0.000204541748 -0.000306243251 -0.000362201067 -0.000373516164
-0.00034690007 -0.000290968498 -0.000217479234 -0.000140743876 -7.2696491e-05 -1.9847329e-05
1.5614107e-05 3.483663e-05 4.2193777e-05 4.2193777e-05 3.483663e-05 1.5613444e-05
-1.9848178e-05 -7.2696491e-05 -0.000140743876 -0.000217479234 -0.000290968498 -0.00034690007
-0.000373516164 -0.000362201067 -0.000306243251 -0.000204541748 -6.6165423e-05 9.3188713e-05
0.000254590782 0.00038339336 0.000416650248 0.000293940618 3.2189236e-05 -0.000235593274
9.0815597e-05 -0.000120048146 -0.000256165757 -0.000222315655 -5.0524667e-05 0.000143741223
0.000260305261 0.000270834921 0.000201526906 8.9702769e-05 -3.5911155e-05 -0.000151934529
-0.000238744972 -0.000286104602 -0.000294333402 -0.000268821273 -0.000216605664 -0.000147713255
-7.4967652e-05 -9.667545e-06 4.1802236e-05 7.7556033e-05 9.8601754e-05 0.00010779089
0.00010779089 9.8601754e-05 7.7556033e-05 4.1802236e-05 -9.667867e-06 -7.4967652e-05
-0.000147713255 -0.000216605664 -0.000268821273 -0.000294327331 -0.000286098152 -0.000238744972
-0.000151927707 -3.5906401e-05 8.9709381e-05 0.000201533191 0.000270840738 0.000260310476
0.000143745713 -5.0521009e-05 -0.000222315655 7.8356636e-05 -4.4653393e-05 -0.000136597894
-0.000125621534 -2.067182e-05 0.000110329774 0.000200391805 0.000221877225 0.000181948436
0.000101074951 1.762028e-06 -9.3103472e-05 -0.000164298145 -0.000202112305 -0.000206179972
-0.000180405047 -0.000130277959 -6.4174932e-05 6.702348e-06 7.1835904e-05 0.000124727974
0.000163082252 0.000187222205 0.000198631338 0.000198631338 0.000187222205 0.000163082252
0.000124727974 7.1835904e-05 6.702781e-06 -6.4174932e-05 -0.000130277959 -0.000180405047
-0.000206173692 -0.00020210572 -0.000164298145 -9.3096644e-05 1.766884e-06 0.000101081468
0.000181954587 0.000221877225 0.000200396826 0.000110334052 -2.0669076e-05 -0.000125621534
3.0478824e-05 -3.598283e-06 -3.4624387e-05 -1.6021223e-05 5.3287439e-05 0.000137649822
0.000197428819 0.000212485767 0.000183000849 0.000120259957 4.1082135e-05 -3.5142251e-05
-9.1759982e-05 -0.000119999403 -0.000118759478 -9.0698706e-05 -4.0237838e-05 2.561944e-05
9.7199489e-05 0.000164765431 0.000221452211 0.000264030332 0.000291869788 0.000305496548
0.000305496548 0.000291869788 0.000264030332 0.000221452211 0.000164769856 9.7199489e-05
2.5621037e-05 -4.0235532e-05 -9.0698706e-05 -0.000118752998 -0.000119999403 -9.1753164e-05
-3.5137487e-05 4.1087464e-05 0.000120266341 0.000183006823 0.000212491204 0.0001974336
0.000137653837 5.3290591e-05 -1.6019901e-05 -3.814554e-05 -4.920843e-06 1.7703045e-05
5.5574459e-05 0.000111920456 0.000169677383 0.000207843252 0.000214689672 0.000189605063
0.000139498172 7.648093e-05 1.5851445e-05 -2.8339147e-05 -4.7811842e-05 -4.0719852e-05
-9.031777e-06 4.3428818e-05 0.000110795165 0.000184876895 0.000256632701 0.000318591198
0.000366267815 0.000397993836 0.000413683597 0.000413683597 0.000397993836 0.000366272239
0.000318591198 0.000256637731 0.000184876895 0.000110795165 4.3431264e-05 -9.028568e-06
-4.0715862e-05 -4.7807767e-05 -2.8334369e-05 1.5856166e-05 7.6487467e-05 0.000139504377
0.000189610813 0.000214694848 0.000207847743 0.000169681086 0.000111923279 5.5576322e-05
-0.000107478124 -3.4998165e-05 2.2757785e-05 7.7839445e-05 0.000132576332 0.000179170959
0.000207284256 0.000211211713 0.000191286966 0.000152311526 0.000102952922 5.5184865e-05
2.1240426e-05 9.30471e-06 2.1754944e-05 5.6879429e-05 0.000111242788 0.000180134799
0.000256841193 0.000332887279 0.000400019843 0.000452396643 0.00048739708 0.000504714929
0.000504714929 0.00048739708 0.000452396643 0.000400019843 0.000332887279 0.000256841193
0.000180134799 0.000111242788 5.6882745e-05 2.1759007e-05 9.308806e-06 2.1245175e-05
5.5189506e-05 0.000102959282 0.0001523175 0.000191286966 0.000211211713 0.000207288403
0.000179170959 0.000132578774 7.7839445e-05 -0.000164013716 -7.5268688e-05 -4.03536e-07
6.4665999e-05 0.000120840497 0.000164410553 0.00019025418 0.000195858081 0.000182342783
0.0001534934 0.000115793996 7.8864053e-05 5.3508056e-05 4.7721527e-05 6.4148145e-05
0.000101274297 0.000156130343 0.000225175175 0.000303003051 0.000381583771 0.000451926068
0.000507049147 0.000543694839 0.000561625309 0.000561625309 0.000543694839 0.000507054855
0.000451931942 0.000381583771 0.000303009331 0.000225181655 0.000156130343 0.000101274297
6.4152924e-05 4.7726287e-05 5.351273e-05 7.8864053e-05 0.000115800118 0.000153499083
0.00018234792 0.000195862572 0.000190257927 0.000164413471 0.000120840497 6.4667029e-05
-0.000202194531 -0.000112573337 -3.3703044e-05 3.4215992e-05 9.0782523e-05 0.000133797558
0.00016024075 0.000168826048 0.000161022144 0.000140317236 0.000112077244 8.4112203e-05
6.5672097e-05 6.4190451e-05 8.2583053e-05 0.000119799757 0.000173363603 0.000240448042
0.000316490274 0.000393946907 0.000463675731 0.000518211717 0.000554120918 0.00057151056
0.00057151056 0.000554120918 0.000518211717 0.000463675731 0.000393946907 0.000316490274
0.000240448042 0.000173370394 0.000119799757 8.2583053e-05 6.4195135e-05 6.5678593e-05
8.4112203e-05 0.00011208306 0.000140322563 0.000161022144 0.000168830108 0.00016024075
0.000133800001 9.0784045e-05 3.421653e-05 -0.000218963347 -0.000138603946 -6.5010222e-05
-3.63857e-07 5.3902109e-05 9.5813997e-05 0.000122797411 0.000133577955 0.000129581347
0.000114387255 9.2870433e-05 7.1312985e-05 5.7200236e-05 5.7254713e-05 7.4946268e-05
0.000109990826 0.00016006857 0.000222149286 0.000291930578 0.000362747261 0.000426360353
0.000475907196 0.000508241093 0.000523739146 0.000523739146 0.000508241093 0.000475907196
0.000426366984 0.000362747261 0.000291937351 0.000222149286 0.00016006857 0.000109997609
7.4952945e-05 5.725926e-05 5.7204598e-05 7.1318865e-05 9.287587e-05 0.000114392157
0.000129585624 0.000133581522 0.000122797411 9.5815908e-05 5.3902109e-05 -3.63857e-07
-0.000209098757 -0.000145659992 -8.5148888e-05 -2.9868755e-05 1.8256995e-05 5.6968003e-05
8.3261734e-05 9.5065604e-05 9.3163234e-05 8.1039169e-05 6.3275552e-05 4.4876086e-05
3.1686558e-05 2.9859398e-05 4.3642067e-05 7.3554628e-05 0.000116947061 0.000169851489
0.000227849514 0.000285498023 0.000336401513 0.000375224184 0.00039981938 0.000411239938
0.000411239938 0.000399826129 0.000375224184 0.000336401513 0.000285498023 0.000227856341
0.000169851489 0.000116947061 7.3561258e-05 4.3645939e-05 2.9863121e-05 3.1690674e-05
4.4879918e-05 6.3275552e-05 8.1043575e-05 9.3166982e-05 9.5065604e-05 8.3263937e-05
5.6969329e-05 1.8256995e-05 -2.9868755e-05 -0.000164750008 -0.000125194694 -8.5400794e-05
-4.6147963e-05 -9.124914e-06 2.3053425e-05 4.6611948e-05 5.8170022e-05 5.716415e-05
4.6315752e-05 2.9750146e-05 1.1540739e-05 -3.690786e-06 -1.0253294e-05 -3.306196e-06
1.8256383e-05 5.1360354e-05 9.1050098e-05 0.000132423563 0.00017058376 0.000200445098
0.000218705996 0.000226300271 0.000227902906 0.000227902906 0.000226300271 0.000218712823
0.000200445098 0.00017058376 0.000132430307 9.1050098e-05 5.1363622e-05 1.8259563e-05
-3.302523e-06 -1.0249804e-05 -3.68736e-06 1.1543728e-05 2.975326e-05 4.6319589e-05
5.716415e-05 5.8170022e-05 4.6611948e-05 2.3053425e-05 -9.124914e-06 -4.6147963e-05
-7.7890963e-05 -6.949513e-05 -5.8341509e-05 -4.215812e-05 -2.1732331e-05 -1.39678e-07
1.7862255e-05 2.7390282e-05 2.6043732e-05 1.5094573e-05 -2.083499e-06 -2.1990807e-05
-4.077402e-05 -5.3312133e-05 -5.4706141e-05 -4.3479429e-05 -2.2640294e-05 2.164258e-06
2.4350141e-05 3.6544323e-05 3.2151976e-05 1.037504e-05 -1.9468024e-05 -4.0926805e-05
-4.0926805e-05 -1.9468024e-05 1.0375712e-05 3.2153311e-05 3.6546307e-05 2.4352096e-05
2.166812e-06 -2.2637192e-05 -4.3476442e-05 -5.47033e-05 -5.3306806e-05 -4.0771078e-05
-2.1988164e-05 -2.081388e-06 1.5096172e-05 2.6043732e-05 2.7391999e-05 1.7862255e-05
-1.39678e-07 -2.1732331e-05 -4.2156194e-05 6.0662347e-05 2.9373582e-05 2.066065e-06
-1.3264646e-05 -1.5360838e-05 -8.251293e-06 1.470251e-06 7.036694e-06 3.989418e-06
-8.226761e-06 -2.7206315e-05 -4.9748522e-05 -7.2382662e-05 -9.0675977e-05 -0.000100118729
-9.8785077e-05 -8.8882584e-05 -7.6756167e-05 -7.3368587e-05 -9.395664e-05 -0.000151383134
-0.000243013052 -0.000342288764 -0.000407740875 -0.000407740875 -0.00034229526 -0.000243019505
-0.000151383134 -9.395664e-05 -7.3362436e-05 -7.6750193e-05 -8.8882584e-05 -9.8785077e-05
-0.000100118729 -9.0675977e-05 -7.2382662e-05 -4.9744774e-05 -2.7204739e-05 -8.225765e-06
3.990124e-06 7.036988e-06 1.470251e-06 -8.251293e-06 -1.536067e-05 -1.3264115e-05
0.000270605464 0.000187416799 0.000105153284 4.4012252e-05 1.0639624e-05 -7.38042e-07
-9.35503e-07 -1.71736e-07 -5.448421e-06 -1.9349366e-05 -4.0589472e-05 -6.6121595e-05
-9.2515181e-05 -0.00011581445 -0.000131818919 -0.000137681663 -0.000133983706 -0.000127917726
-0.000137782152 -0.000192363402 -0.000315954214 -0.000502200384 -0.000699094209 -0.000827467296
-0.000827467296 -0.000699155143 -0.000502200384 -0.000315954214 -0.000192363402 -0.000137782152
-0.000127917726 -0.000133983706 -0.000137681663 -0.000131814428 -0.00011581039 -9.2515181e-05
-6.6121595e-05 -4.0587078e-05 -1.9347649e-05 -5.448127e-06 -1.71705e-07 -9.35503e-07
-7.37842e-07 1.0640363e-05 4.4012252e-05 0.000584392661 0.000428942132 0.000262842281
0.000131063996 5.2140688e-05 1.7367727e-05 7.166212e-06 4.422344e-06 -1.671309e-06
-1.5999819e-05 -3.8601943e-05 -6.6640217e-05 -9.6390291e-05 -0.00012384768 -0.000144508326
-0.00015375877 -0.000149318436 -0.000138203998 -0.000146341098 -0.00021849749 -0.000394207478
-0.000666412044 -0.000957743795 -0.001148667336 -0.001148667336 -0.000957743795 -0.000666412044
-0.000394212842 -0.00021849749 -0.000146341098 -0.000138203998 -0.000149318436 -0.000153754623
-0.000144508326 -0.000123844389 -9.6390291e-05 -6.6638015e-05 -3.8601943e-05 -1.5999819e-05
-1.671309e-06 4.422344e-06 7.166361e-06 1.7368436e-05 5.2140688e-05 0.000131063996
0.001010097526 0.000750929848 0.00046203711 0.000229827484 9.1468331e-05 3.1924045e-05
1.582178e-05 1.4352973e-05 1.1494101e-05 1.4217e-07 -2.1074929e-05 -4.9697692e-05
-8.1550863e-05 -0.000111991341 -0.000135471238 -0.000144689719 -0.000132883403 -0.000103752333
-8.647596e-05 -0.000138276272 -0.000314634627 -0.000615004922 -0.000949852273 -0.001173284315
-0.001173284315 -0.000949852273 -0.00061505273 -0.000314634627 -0.000138280763 -8.647596e-05
-0.000103752333 -0.0001328797 -0.000144689719 -0.000135471238 -0.000111991341 -8.1550863e-05
-4.9696366e-05 -2.1074243e-05 1.42164e-07 1.1494101e-05 1.4352973e-05 1.5822253e-05
3.1925338e-05 9.1472466e-05 0.000229832551 0.001458228303 0.001058396621 0.000616420128
0.000272324178 8.1434512e-05 1.3231895e-05 7.245626e-06 1.875352e-05 2.6924907e-05
2.422766e-05 8.912518e-06 -1.688628e-05 -4.854439e-05 -8.0460897e-05 -0.00010569275
-0.000114043001 -9.3230815e-05 -3.9848175e-05 2.1433836e-05 3.0238724e-05 -8.0646741e-05
-0.000325294914 -0.000623279026 -0.000829684056 -0.000829684056 -0.000623279026 -0.000325298885
-8.0650579e-05 3.0235432e-05 2.1432121e-05 -3.9848175e-05 -9.3230815e-05 -0.000114043001
-0.000105690741 -8.0460897e-05 -4.854439e-05 -1.688628e-05 8.912518e-06 2.422766e-05
2.6924907e-05 1.875352e-05 7.246283e-06 1.3233962e-05 8.1434512e-05 0.000272330111
0.001712710119 0.001148001927 0.000560513429 0.0001409346 -5.2221224e-05 -8.1483046e-05
-4.2058386e-05 4.454644e-06 3.6507055e-05 5.0646772e-05 4.7254313e-05 2.8804796e-05